100
timestep 0  
A 0.909050 5.024981 6.470342 
A 8.790213 12.486912 18.774803 
A 7.692070 1.756086 16.691429 
A 3.123377 16.604545 0.099146 
A 11.613478 15.266896 2.082061 
A 7.547590 13.037532 17.203011 
A 2.106285 2.669962 15.524421 
A 5.820515 5.196214 4.026127 
A 10.543230 11.338148 13.317602 
A 14.053692 3.410458 4.286872 
A 10.844704 16.954891 17.458790 
A 17.667162 1.892985 12.937096 
A 12.333743 12.604463 17.499188 
A 2.777098 7.200176 7.829224 
A 7.575007 10.002639 2.752512 
A 4.287065 8.450079 7.603586 
A 18.898879 7.064180 13.788000 
A 6.369742 2.997495 11.896568 
A 17.497216 4.532895 9.297790 
A 14.718697 10.911044 2.367941 
A 6.073069 16.651122 9.637086 
A 18.663658 2.620230 11.769708 
A 16.651084 11.729088 8.687683 
A 8.142263 18.572091 18.265535 
A 12.868128 3.565725 13.759112 
A 4.395300 15.775045 3.645400 
A 1.297115 2.637050 14.364206 
A 4.907033 8.227255 7.148591 
A 3.136049 17.590937 13.474153 
A 16.298564 13.556970 9.053819 
A 12.769689 12.825847 17.102441 
A 0.719943 16.311962 9.042086 
A 9.375447 5.101722 4.671357 
A 3.478249 13.873345 19.261925 
A 3.435023 6.145389 7.046363 
A 1.828084 0.197760 6.256680 
A 11.245296 19.817130 13.091693 
A 13.318887 11.073558 7.258539 
A 6.646519 16.311809 4.251004 
A 1.518928 1.919080 15.461370 
A 9.011145 19.543743 6.011808 
A 18.834004 9.533048 14.600894 
A 3.042145 13.487306 15.402163 
A 12.938793 0.545543 8.492510 
A 3.522740 15.052120 17.589103 
A 7.492142 19.800135 1.894253 
A 11.197906 14.251534 1.453384 
A 1.090708 12.869297 15.313886 
A 6.259317 19.079054 4.074720 
A 5.435568 16.961701 2.623395 
A 6.275370 12.867004 18.717786 
A 6.029142 14.631211 12.909301 
A 3.861411 3.566838 5.764999 
A 8.171886 9.040801 14.809032 
A 16.367990 16.521120 9.964404 
A 12.722084 14.538160 18.449054 
A 14.171537 1.629375 9.163447 
A 7.929452 18.294431 11.653348 
A 2.133302 8.730918 11.416574 
A 18.260708 8.200012 12.686348 
A 12.810920 19.091487 9.132364 
A 15.074198 17.345215 14.175646 
A 11.045948 7.787388 3.053233 
A 18.346833 10.554779 18.574430 
A 3.393664 8.326084 17.213999 
A 11.992381 4.993245 7.754461 
A 16.445708 7.184643 4.547279 
A 17.229456 19.372956 11.658864 
A 5.628707 17.000426 8.568840 
A 11.932659 18.194749 11.299294 
A 5.510220 13.430696 14.810285 
A 5.502579 5.357747 14.441537 
A 11.796311 4.339179 0.243299 
A 14.897229 6.883770 2.144012 
A 9.520442 0.420285 12.442332 
A 10.911006 0.468355 1.983780 
A 8.316474 13.010514 19.835955 
A 11.293324 12.410871 11.765559 
A 9.346753 1.364877 12.641384 
A 4.783658 2.074520 10.506729 
A 16.199901 10.272200 3.435702 
A 8.254819 11.825317 13.370398 
A 13.053753 6.832485 14.584111 
A 18.375730 1.593535 16.360824 
A 8.646413 12.536361 0.535984 
A 4.543240 18.521762 12.921765 
A 1.186628 17.982450 17.596187 
A 10.394692 6.124388 3.862113 
A 6.626049 6.179756 6.037524 
A 8.849995 11.445052 16.675449 
A 2.749251 0.678984 15.633423 
A 13.165271 0.729331 17.254637 
A 10.810128 11.706319 4.566222 
A 19.948631 17.313098 0.533091 
A 10.842104 12.188887 6.655657 
A 16.103591 17.285774 10.566224 
A 2.950914 11.291181 1.466727 
A 18.449404 5.084468 17.406219 
A 5.872680 10.346642 18.804288 
A 6.346666 9.605388 12.899151 
100
timestep 1  
A 6.287304 3.970002 7.061528 
A 6.637066 14.072037 16.587062 
A 8.409328 17.835076 18.450910 
A 5.001006 15.917588 1.927754 
A 10.322439 13.336046 1.615801 
A 7.292714 15.945150 16.775299 
A 1.538731 2.292622 18.595363 
A 5.538412 6.826867 5.472303 
A 7.659172 10.284418 13.075836 
A 14.982999 5.272551 5.203009 
A 9.757619 16.316068 17.389432 
A 19.724496 2.596402 11.634415 
A 6.064507 17.761084 18.458360 
A 2.618742 8.156721 6.170372 
A 6.631538 9.989065 3.010491 
A 8.761682 4.064005 4.561739 
A 19.838792 4.844485 12.124782 
A 7.249045 0.178015 13.236062 
A 15.246451 4.725477 10.966966 
A 15.323081 11.879294 3.550180 
A 5.185916 11.774223 8.708346 
A 18.394103 1.501946 11.490822 
A 14.929749 10.104854 10.126251 
A 8.840206 0.479880 19.600420 
A 12.289091 0.621280 11.105858 
A 6.163806 17.065857 2.060795 
A 18.925946 3.399036 11.687172 
A 19.474611 14.282174 13.045921 
A 2.339890 0.414997 15.672164 
A 13.345652 15.655146 8.105433 
A 18.391867 7.185266 17.490879 
A 1.687744 18.360168 7.133439 
A 9.780105 4.036315 4.521481 
A 4.171071 13.627942 19.744610 
A 2.888973 4.412687 4.089905 
A 2.813645 0.114313 6.274777 
A 10.624126 1.343689 12.465420 
A 14.977615 9.851781 6.828362 
A 9.028401 17.226054 5.692331 
A 3.721192 19.670595 13.109249 
A 7.889690 0.485403 6.815126 
A 18.563556 8.492947 1.490916 
A 2.555350 11.410382 14.976960 
A 14.218375 1.431234 11.978472 
A 2.338300 15.941965 14.829031 
A 7.693280 19.712009 1.793430 
A 11.139461 13.974707 4.787148 
A 3.905929 14.304924 12.753856 
A 6.722342 19.859549 4.277063 
A 7.496091 15.162964 3.244832 
A 5.988977 12.027500 15.546584 
A 4.467948 15.912745 11.865177 
A 1.934513 3.014931 7.789464 
A 9.190211 8.195534 14.481509 
A 12.593234 14.620919 8.498738 
A 10.457911 12.501560 17.056707 
A 16.299645 1.764860 8.690277 
A 7.349545 19.810768 13.873424 
A 19.282396 7.873389 9.785108 
A 18.118139 7.535827 10.988462 
A 13.553564 17.546872 11.007145 
A 17.528921 19.156700 12.966614 
A 11.824932 7.102442 1.939567 
A 18.055572 10.673531 18.857645 
A 6.334758 10.323003 0.136790 
A 11.656413 7.425097 6.185389 
A 12.257961 7.889486 3.091229 
A 16.517605 19.206897 11.106953 
A 4.753358 1.413410 9.083386 
A 14.451630 0.523997 11.107542 
A 1.008067 11.478560 16.315697 
A 6.566146 4.253010 13.915027 
A 15.610101 6.453150 1.406594 
A 12.172824 6.955890 0.874766 
A 12.358383 1.101214 10.837270 
A 11.814369 2.474137 3.505333 
A 8.417394 10.022466 1.904062 
A 11.175721 11.198940 10.546658 
A 9.997694 17.777722 15.268133 
A 2.876570 0.790101 11.970796 
A 19.381611 14.491231 3.901961 
A 7.941692 12.320176 13.575223 
A 12.098737 8.290195 15.324004 
A 16.996442 0.614580 16.881333 
A 8.694569 14.088661 17.571871 
A 7.589129 17.211527 13.865012 
A 0.563544 0.114386 15.613057 
A 11.228520 8.512940 3.056830 
A 6.233511 7.844742 8.514545 
A 8.524306 14.484372 17.939718 
A 4.009656 0.182904 14.789997 
A 11.592606 0.974497 17.148119 
A 12.681544 10.780373 2.932731 
A 19.777042 14.107314 0.223059 
A 11.303246 11.254601 7.887463 
A 15.148893 15.233265 6.899556 
A 3.470160 13.553820 0.241844 
A 19.013131 5.597264 18.724573 
A 3.003021 8.210313 16.305183 
A 6.585754 9.145122 12.338386 
100
timestep 2  
A 11.665559 2.915023 7.652715 
A 4.482324 15.655774 14.398730 
A 9.126772 13.914559 0.210719 
A 6.873842 15.225899 3.755815 
A 9.031400 11.405196 1.149540 
A 7.037736 18.855393 16.347182 
A 0.971178 1.915283 1.666305 
A 5.256309 8.457520 6.918479 
A 4.777915 9.232645 12.835816 
A 15.912305 7.134644 6.119147 
A 8.671538 15.677753 17.319531 
A 1.789489 3.298184 10.331724 
A 19.794666 2.917687 19.417534 
A 2.460386 9.113267 4.511520 
A 5.686967 9.975470 3.269152 
A 13.399571 19.673493 1.513438 
A 0.780914 2.628906 10.462753 
A 10.987628 6.910189 12.708795 
A 12.995685 4.918059 12.636142 
A 15.927465 12.847544 4.732420 
A 4.298762 6.897323 7.779605 
A 18.120321 0.378751 11.211344 
A 13.208414 8.480619 11.564820 
A 9.538150 2.387669 0.935304 
A 18.433685 15.409404 17.240760 
A 7.937105 18.361402 0.476738 
A 16.549134 4.163453 9.009552 
A 14.042188 0.337094 18.943250 
A 1.545098 3.239977 17.871476 
A 10.403441 17.769233 7.151563 
A 4.013668 1.545652 17.878565 
A 2.655146 0.407752 5.225096 
A 10.021491 2.975347 4.378059 
A 2.746942 13.158671 1.729083 
A 2.342922 2.679986 1.133447 
A 3.799604 0.031488 6.292569 
A 10.002008 2.870547 11.839969 
A 16.636343 8.630004 6.398184 
A 11.410283 18.140299 7.133658 
A 5.924500 17.418735 10.755658 
A 6.768235 1.427063 7.618443 
A 18.293109 7.452846 8.380937 
A 2.069727 9.333406 14.550744 
A 15.495144 2.333849 15.481059 
A 1.153859 16.831811 12.068958 
A 7.894419 19.623884 1.692607 
A 11.081016 13.697880 8.120913 
A 6.720452 15.738555 10.194930 
A 7.185366 0.640045 4.479405 
A 9.556614 13.364228 3.866268 
A 5.702436 11.187530 12.375146 
A 2.907453 17.196277 10.819950 
A 0.007615 2.463024 9.813929 
A 10.208537 7.350267 14.153985 
A 8.807030 12.704981 7.039057 
A 8.194085 10.464648 15.664259 
A 18.427752 1.900346 8.217108 
A 3.910359 11.775451 17.960262 
A 16.435036 7.016887 8.149977 
A 17.972024 6.870614 9.294242 
A 14.296208 16.002257 12.881927 
A 19.984230 0.968157 11.758663 
A 12.599556 6.408815 0.817429 
A 17.764312 10.792284 19.140860 
A 9.275853 12.319921 3.059581 
A 11.320445 9.856949 4.616317 
A 8.093433 8.590131 1.646886 
A 15.805545 19.040626 10.553963 
A 3.878010 5.826393 9.597933 
A 16.976461 2.836667 10.900061 
A 16.504743 9.526476 17.822121 
A 7.629714 3.148273 13.388516 
A 19.423891 8.567121 2.569889 
A 9.449598 7.027308 19.601390 
A 8.470214 4.049169 0.442336 
A 12.717731 4.479919 5.026886 
A 8.519416 7.034439 3.971485 
A 11.058118 9.987009 9.327756 
A 10.648635 14.190567 17.894881 
A 0.967796 19.507916 13.432591 
A 2.563321 18.710262 4.368220 
A 7.628730 12.816228 13.780341 
A 11.143721 9.747905 16.063898 
A 15.617155 19.635625 17.401843 
A 19.311525 8.865128 10.286077 
A 10.635017 15.901293 14.808259 
A 19.936857 2.245713 13.629808 
A 12.042310 10.915073 2.252444 
A 5.840973 9.509729 10.991567 
A 17.630727 4.298088 3.527216 
A 5.272937 19.687653 13.949131 
A 10.019941 1.219664 17.041601 
A 14.552961 9.854428 1.299240 
A 19.605454 10.901530 19.913026 
A 11.764387 10.320315 9.119268 
A 14.194944 13.180582 3.232387 
A 6.106358 16.040328 17.515173 
A 19.577236 6.109093 0.043678 
A 0.133362 6.073984 13.806079 
A 6.821875 8.681707 11.775583 
100
timestep 3  
A 17.043813 1.860044 8.243902 
A 2.327582 17.239511 12.210397 
A 9.844217 9.994041 1.970529 
A 8.746678 14.534209 5.583875 
A 7.740227 9.473843 0.682228 
A 6.782758 1.765636 15.919065 
A 0.398424 1.535044 4.739267 
A 4.975002 10.089468 8.363940 
A 1.895231 8.180053 12.597202 
A 16.838845 8.991762 7.033085 
A 7.585457 15.039437 17.249630 
A 3.875246 4.013468 9.026930 
A 13.524389 8.074209 0.377092 
A 2.302030 10.069813 2.852668 
A 4.742396 9.961876 3.527814 
A 18.037460 15.282980 18.465136 
A 1.588656 0.376342 8.706021 
A 14.728671 13.640972 12.176963 
A 10.744919 5.110641 14.305318 
A 16.532346 13.815699 5.915089 
A 3.411028 2.019675 6.850650 
A 17.845033 19.255081 10.931424 
A 11.487079 6.856385 13.003389 
A 10.236939 4.294144 2.270579 
A 4.578280 10.197529 3.375662 
A 9.710511 19.653788 18.889638 
A 14.172212 4.928209 6.331448 
A 8.609310 6.392216 4.841026 
A 0.750741 6.065037 0.070403 
A 7.503674 19.898963 6.196937 
A 9.635468 15.906038 18.266251 
A 3.617275 2.459373 3.312863 
A 10.262877 1.914380 4.234637 
A 1.322813 12.689400 3.713555 
A 1.802072 0.950184 18.174969 
A 4.790959 19.946889 6.315394 
A 9.379890 4.397405 11.214518 
A 18.297560 7.413634 5.968558 
A 13.749721 19.038901 8.575740 
A 8.126898 15.168795 8.402708 
A 5.646780 2.368723 8.421760 
A 18.026056 6.415276 15.268119 
A 1.584103 7.256430 14.124528 
A 16.771914 3.236465 18.983646 
A 19.968618 17.721490 9.309455 
A 8.095450 19.538918 1.594827 
A 11.022571 13.421053 11.454677 
A 9.535885 17.170265 7.635363 
A 7.648391 1.420540 4.681748 
A 11.621240 11.580752 4.499493 
A 5.416213 10.349144 9.204158 
A 1.347756 18.479974 9.774153 
A 18.195075 1.935624 11.934842 
A 11.224402 6.506390 13.831027 
A 5.020825 10.789042 5.579376 
A 5.930258 8.427736 14.271811 
A 0.555408 2.035670 7.743481 
A 0.471173 3.740134 2.047100 
A 13.583755 6.159595 6.514791 
A 17.826715 6.203228 7.604564 
A 15.038852 14.457642 14.756708 
A 2.440581 2.779077 10.551005 
A 13.374181 5.715189 19.695291 
A 17.471880 10.911443 19.423900 
A 12.212979 14.302081 5.971634 
A 10.984477 12.288801 3.047244 
A 3.928904 9.290775 0.202543 
A 15.093485 18.874356 10.000972 
A 3.002447 10.238828 10.113409 
A 19.501402 5.148998 10.693063 
A 12.000915 7.573886 19.328017 
A 8.693281 2.043535 12.862006 
A 3.237681 10.681091 3.733184 
A 6.726371 7.098727 18.328014 
A 4.581200 6.998438 10.047012 
A 13.621094 6.485701 6.548439 
A 8.621438 4.046411 6.038909 
A 16.679519 11.483455 6.414722 
A 11.299576 10.603412 0.521629 
A 19.059215 18.225445 14.894713 
A 5.744908 2.927031 4.833336 
A 7.315769 13.312280 13.985459 
A 10.188705 11.205615 16.803791 
A 14.238324 18.656467 17.921907 
A 9.928482 3.641595 3.000283 
A 13.680906 14.591058 15.751506 
A 19.310154 4.377474 11.647195 
A 12.856100 13.317205 1.448058 
A 5.441620 11.180356 13.461045 
A 6.737149 14.111805 9.114714 
A 6.536219 19.192403 13.108265 
A 8.447277 1.464830 16.935083 
A 16.424378 8.928483 19.665750 
A 19.435541 7.695846 19.603697 
A 6.486524 6.677653 12.045207 
A 13.240498 11.127993 19.564789 
A 8.742555 18.526836 14.788502 
A 0.141341 6.620922 1.362784 
A 17.263703 3.937655 11.306975 
A 7.065920 8.211884 11.218467 
100
timestep 4  
A 2.422068 0.805066 8.835089 
A 0.172840 18.823248 10.022064 
A 10.560889 6.073201 3.731106 
A 10.619513 13.842519 7.411936 
A 6.449053 7.542490 0.214916 
A 6.526100 4.676182 15.489923 
A 19.825670 1.154805 7.812230 
A 4.838925 11.806893 10.085971 
A 19.013153 7.129262 12.355610 
A 17.765068 10.849224 7.947255 
A 6.498997 14.400961 17.179541 
A 5.961001 4.729257 7.721935 
A 7.256069 13.231783 1.338101 
A 2.132925 11.019695 1.184128 
A 2.577468 1.981446 15.995543 
A 2.675349 10.892468 15.416835 
A 2.396983 18.123855 6.949260 
A 18.469714 0.371756 11.645132 
A 8.490975 5.294098 15.977808 
A 17.137194 14.784374 7.097646 
A 2.523295 17.142028 5.921694 
A 17.569745 18.131410 10.651503 
A 9.555493 4.952237 15.104725 
A 10.892996 6.110221 3.706939 
A 11.960647 12.945282 17.296357 
A 11.483917 0.946173 17.302538 
A 11.805027 5.671110 3.650144 
A 3.176431 12.447339 10.738801 
A 19.961123 8.885550 2.260979 
A 4.603833 2.027916 5.243086 
A 15.257648 10.266584 18.654125 
A 4.579404 4.510993 1.400631 
A 10.504435 0.852520 4.091852 
A 19.898685 12.220129 5.698028 
A 1.261222 19.220381 15.216491 
A 5.782314 19.862290 6.338218 
A 8.757772 5.924263 10.589068 
A 19.959397 6.197703 5.537643 
A 16.087762 19.937674 10.016341 
A 10.331291 12.920372 6.048737 
A 4.525609 3.310120 9.224981 
A 17.759002 5.377706 2.155301 
A 1.097872 5.177653 13.701291 
A 18.048683 4.139080 2.486233 
A 18.777731 18.608064 6.548049 
A 8.296482 19.453952 1.497046 
A 10.964126 13.144226 14.788442 
A 12.351318 18.601976 5.075796 
A 8.111858 2.201520 4.883287 
A 13.687579 9.795373 5.136625 
A 4.984759 9.425283 5.756601 
A 19.793599 19.765932 8.730735 
A 16.382821 1.407609 14.055947 
A 12.453695 5.951552 12.841986 
A 1.234852 8.873589 4.121101 
A 3.666432 6.390824 12.879363 
A 2.682584 2.171763 7.269408 
A 17.031987 15.704816 6.133938 
A 4.844323 15.779592 12.351057 
A 17.681102 5.535060 5.915943 
A 15.786001 12.912584 16.628190 
A 4.896651 4.589756 9.343645 
A 14.149141 5.020654 18.573129 
A 17.179817 11.031302 19.706855 
A 15.150105 16.284241 8.883688 
A 10.646796 14.722557 1.474266 
A 19.764375 9.991419 18.758200 
A 14.382822 18.707914 9.449462 
A 2.126884 14.651264 10.628886 
A 2.030033 7.476214 10.467658 
A 7.494795 5.621151 0.832488 
A 9.756848 0.938798 12.335495 
A 7.044574 12.808446 4.909899 
A 4.003144 7.170145 17.054637 
A 0.692186 9.947708 19.651688 
A 0.402870 18.036049 0.601739 
A 8.723460 1.058384 8.106332 
A 2.300953 12.979380 3.501799 
A 11.950530 7.016375 3.147983 
A 17.150634 16.942974 16.356836 
A 8.926126 7.144092 5.298482 
A 7.002807 13.808332 14.190577 
A 9.233690 12.663325 17.543685 
A 12.859492 17.677309 18.441970 
A 0.587996 18.509352 15.612765 
A 16.722290 13.281266 16.698052 
A 18.680936 6.494602 9.683186 
A 13.669890 15.719337 0.643672 
A 5.042267 12.850984 15.930522 
A 15.841576 3.924004 14.703233 
A 7.799500 18.697152 12.267399 
A 6.876291 1.709692 16.829590 
A 18.295425 8.001838 18.032345 
A 19.264615 4.491510 19.293308 
A 1.207643 3.032295 14.972599 
A 12.286811 9.075610 15.896817 
A 11.378752 1.013344 12.061831 
A 0.701720 7.135950 2.691300 
A 14.392584 1.801688 8.807483 
A 7.310984 7.744758 10.659897 
100
timestep 5  
A 7.800157 19.749222 9.427266 
A 18.019636 0.403160 7.838970 
A 10.561007 4.860715 1.166292 
A 12.493383 13.154138 9.244887 
A 5.157532 5.611774 19.747399 
A 6.268299 7.586369 15.060497 
A 19.253034 0.779670 10.881816 
A 4.705121 13.523441 11.807108 
A 16.131076 6.078470 12.114018 
A 18.691291 12.706685 8.861425 
A 5.412789 13.762753 17.109668 
A 8.047957 5.445204 6.415108 
A 0.987750 18.389358 2.299109 
A 1.964174 11.969842 19.515965 
A 0.413752 14.000087 8.464176 
A 7.313238 6.501955 12.368534 
A 3.203964 15.881833 5.203453 
A 2.210758 7.102540 11.113300 
A 6.226419 5.481691 17.660224 
A 17.743649 15.738979 8.294935 
A 1.636907 12.253914 4.981785 
A 17.294755 17.007376 10.371710 
A 7.635663 3.044314 17.196419 
A 12.398628 5.136080 9.465381 
A 19.343014 15.693035 11.217052 
A 13.257323 2.238559 15.715439 
A 9.292108 6.473421 0.982752 
A 17.741476 18.502925 16.637490 
A 19.170228 11.708017 4.450417 
A 1.703993 4.156869 4.289235 
A 0.879288 4.626916 19.041704 
A 5.541533 6.562613 19.488398 
A 10.745994 19.790660 3.949068 
A 18.474556 11.750858 7.682500 
A 0.674554 17.442189 12.284982 
A 6.773668 19.777691 6.361043 
A 8.136054 7.450618 9.963597 
A 1.621722 4.981915 5.106647 
A 18.426300 0.837384 11.457078 
A 12.534649 10.668640 3.689874 
A 3.398783 4.232014 10.026393 
A 17.487171 4.360563 9.037025 
A 0.611624 3.099215 13.277852 
A 19.330230 5.021269 5.994278 
A 17.586844 19.494638 3.786644 
A 8.497514 19.368986 1.399266 
A 10.905681 12.867399 18.122207 
A 15.166750 0.033686 2.516229 
A 8.575326 2.982501 5.084826 
A 15.753918 8.009993 5.773757 
A 4.553305 8.501422 2.309044 
A 18.237785 1.050611 7.685454 
A 14.570568 0.879593 16.177052 
A 13.682989 5.396713 11.852945 
A 17.449483 6.958634 2.663899 
A 1.402606 4.353912 11.486915 
A 4.809925 2.308722 6.794344 
A 13.591193 7.683569 10.206045 
A 16.104892 5.399590 18.187323 
A 17.535001 4.866750 4.227402 
A 16.721638 11.441747 18.513736 
A 7.357175 6.419781 8.139926 
A 14.924100 4.326119 17.450967 
A 16.888295 11.151377 19.990106 
A 18.087231 18.266402 11.795742 
A 10.309116 17.156314 19.901287 
A 15.583361 10.692840 17.297982 
A 13.671363 18.540899 8.897688 
A 1.251124 19.064111 11.144342 
A 4.558663 9.803430 10.242252 
A 2.989022 3.667779 2.337164 
A 10.813933 19.833763 11.810079 
A 10.851466 14.935801 6.086615 
A 1.279918 7.241564 15.781261 
A 16.819304 12.895937 9.271862 
A 7.184645 9.586398 14.655040 
A 8.825482 18.070357 10.173756 
A 7.922386 14.475304 0.588876 
A 12.614200 3.451791 5.763737 
A 15.242053 15.660503 17.818958 
A 12.107343 11.361153 5.763628 
A 6.689846 14.304384 14.395695 
A 8.278674 14.121035 18.283578 
A 11.480661 16.698151 18.962034 
A 11.293327 13.425499 8.198278 
A 19.575186 11.897254 17.630535 
A 18.051718 8.611730 7.719176 
A 14.483680 18.121470 19.839285 
A 4.642662 14.521343 18.399783 
A 4.946004 13.736204 0.291752 
A 9.062781 18.201902 11.426533 
A 5.305306 1.954555 16.724097 
A 0.166472 7.075193 16.398939 
A 19.093688 1.287175 18.982919 
A 15.927568 19.387528 17.899287 
A 11.333124 7.023227 12.228844 
A 14.021432 3.500150 9.334067 
A 1.262771 7.648524 4.019881 
A 11.521465 19.665721 6.307991 
A 7.555648 7.278135 10.101347 
100
timestep 6  
A 13.177621 18.694404 10.018988 
A 10.323241 4.889878 15.482283 
A 10.562039 3.647067 18.601609 
A 14.372768 12.464509 11.082648 
A 3.890974 3.743581 19.263395 
A 6.010152 10.495803 14.631223 
A 18.514476 0.416119 14.066856 
A 4.571317 15.239990 13.528246 
A 13.248998 5.027679 11.872426 
A 19.620471 14.569699 9.783114 
A 4.329199 13.121968 17.035412 
A 10.135345 6.160542 5.107205 
A 14.719430 3.546932 3.260117 
A 1.795424 12.919988 17.847803 
A 18.250802 6.019304 0.932633 
A 11.951076 2.111280 9.320709 
A 4.010946 13.639812 3.457645 
A 5.951801 13.833324 10.581468 
A 3.962401 5.668835 19.341404 
A 18.350181 16.693370 9.491872 
A 0.750520 7.365801 4.041875 
A 17.019116 15.882646 10.091240 
A 5.715832 1.136391 19.288114 
A 13.903782 4.162420 15.223861 
A 6.725132 18.440462 5.137548 
A 15.029250 3.532476 14.127819 
A 6.778275 7.276894 18.315228 
A 12.306939 4.558307 2.535888 
A 18.379333 14.530485 6.639854 
A 18.805016 6.274369 3.324367 
A 6.500927 18.987247 19.429282 
A 6.478163 8.552159 17.593889 
A 10.987426 18.728820 3.805899 
A 17.048985 11.275228 9.659130 
A 0.087728 15.663177 9.354479 
A 7.765023 19.693093 6.383867 
A 14.009855 5.528619 0.010749 
A 3.283303 3.777681 4.686948 
A 0.930761 1.725512 12.782362 
A 14.738174 8.416638 1.330205 
A 2.272292 5.153887 10.827559 
A 17.215341 3.343419 15.918750 
A 0.125157 1.020429 12.854910 
A 0.611368 5.903465 9.502481 
A 16.395957 0.381212 1.025238 
A 8.698545 19.284020 1.301486 
A 10.847236 12.590573 1.455971 
A 17.982183 1.465397 19.956662 
A 9.038794 3.763481 5.286365 
A 17.820257 6.224614 6.410888 
A 4.121850 7.577560 18.861486 
A 2.225163 19.428484 16.813765 
A 12.759794 0.350047 18.298678 
A 14.912283 4.841875 10.863904 
A 13.664115 5.043679 1.206697 
A 19.138664 2.317368 10.094216 
A 6.937266 2.445680 6.319281 
A 10.150399 19.662322 14.278151 
A 7.368363 15.022225 4.025398 
A 17.388901 4.198440 2.538862 
A 17.658156 9.974392 0.390804 
A 9.816870 8.249582 6.935582 
A 15.696159 3.628946 16.326995 
A 16.597982 11.269344 0.284067 
A 1.024930 0.249472 14.708824 
A 9.964833 19.592653 18.333602 
A 11.400256 11.392885 15.835530 
A 12.959905 18.373884 8.345914 
A 0.375772 3.478106 11.658992 
A 7.087294 12.130646 10.016847 
A 18.483537 1.714297 3.841401 
A 11.871367 18.729053 11.284739 
A 14.658359 17.063156 7.263331 
A 18.576712 7.315974 14.496778 
A 12.944139 15.844396 18.892538 
A 13.966766 1.137499 8.708187 
A 8.923839 15.078926 12.218982 
A 13.543732 15.971316 17.676522 
A 13.277869 19.887207 8.379490 
A 13.333472 14.378032 19.281081 
A 15.288395 15.578484 6.229581 
A 6.376884 14.800435 14.600813 
A 7.323746 15.578657 19.022902 
A 10.108431 15.716411 19.476804 
A 1.993144 8.342892 0.778981 
A 2.428082 10.513241 18.563018 
A 17.422500 10.728858 5.755167 
A 15.297470 0.523602 19.034899 
A 4.240229 16.194824 0.872119 
A 14.050641 3.547860 5.881580 
A 10.330005 17.708705 10.608244 
A 3.734321 2.199418 16.618604 
A 2.017498 6.145557 14.776641 
A 18.922762 18.082840 18.672531 
A 10.647074 15.742964 0.826266 
A 10.379436 4.970843 8.560872 
A 16.664589 5.986474 6.606264 
A 1.823822 8.161098 5.348463 
A 8.650472 17.529733 3.808883 
A 1.305240 10.260861 18.871401 
100
timestep 7  
A 18.558109 17.639493 10.614536 
A 2.626846 9.376596 3.125596 
A 10.563071 2.433420 16.036927 
A 16.252153 11.774881 12.920409 
A 2.624330 1.873063 18.779296 
A 5.752005 13.405236 14.201950 
A 17.774935 0.052199 17.252634 
A 4.436569 16.956769 15.248822 
A 10.365110 3.977090 11.631932 
A 0.541085 16.411848 10.712894 
A 3.245608 12.481183 16.961156 
A 12.222732 6.875880 3.799301 
A 8.451110 8.704506 4.221126 
A 1.626673 13.870134 16.179640 
A 16.087756 18.038476 13.400677 
A 16.588347 17.720879 6.273056 
A 4.817927 11.397791 1.711838 
A 9.692199 0.565076 10.049958 
A 1.698308 5.856388 1.023160 
A 18.959874 17.651873 10.686716 
A 19.862989 2.476748 3.100142 
A 16.738680 14.754995 9.812931 
A 3.795758 19.229136 1.379764 
A 15.404413 3.191068 0.985389 
A 14.106473 1.186952 19.057111 
A 16.804643 4.824310 12.535961 
A 4.266806 8.070323 15.653385 
A 6.870963 10.613174 8.435695 
A 17.588439 17.352952 8.829291 
A 15.905628 8.391629 2.359725 
A 12.122810 13.346911 19.816904 
A 7.412429 10.551749 15.693699 
A 11.228858 17.666980 3.662730 
A 15.623414 10.799599 11.635760 
A 19.511106 13.903838 6.415817 
A 8.757155 19.609431 6.407624 
A 19.888956 3.614053 10.039570 
A 4.944884 2.573448 4.267249 
A 3.401356 2.583171 14.110911 
A 16.941698 6.164637 18.970535 
A 1.146392 6.075493 11.629197 
A 16.951028 2.324863 2.798454 
A 19.673413 18.972212 12.427360 
A 1.891914 6.785927 13.010212 
A 15.204744 1.267271 18.264944 
A 8.899577 19.199054 1.203706 
A 10.788791 12.313746 4.789736 
A 0.798301 2.897576 17.396633 
A 9.502261 4.544462 5.487905 
A 19.907575 4.443557 7.044473 
A 3.690556 6.655614 15.413447 
A 6.212542 17.806356 5.942077 
A 10.949020 19.820501 0.420303 
A 16.143387 4.286834 9.873765 
A 9.874887 3.121806 19.766417 
A 16.874357 0.280482 8.701056 
A 9.064607 2.582638 5.844217 
A 6.709604 11.641075 18.350257 
A 18.631833 4.644860 9.863474 
A 17.242800 3.530130 0.850322 
A 18.598376 8.502515 2.268244 
A 12.276564 10.079382 5.731237 
A 16.461754 2.932960 15.206234 
A 16.303967 11.391834 0.577656 
A 3.963033 2.231921 17.623080 
A 9.620550 2.028991 16.765916 
A 7.217152 12.092931 14.373079 
A 12.245457 18.196743 7.789268 
A 19.500503 7.893330 12.173533 
A 9.616570 14.456894 9.791120 
A 13.978053 19.760815 5.345637 
A 12.927916 17.625458 10.762486 
A 18.464814 19.192116 8.441127 
A 15.873507 7.390384 13.212295 
A 9.058390 18.799494 8.527927 
A 0.755674 12.699614 2.764130 
A 9.022195 12.087496 14.264208 
A 19.173502 17.469629 14.746691 
A 13.937389 16.321768 10.991160 
A 11.427052 13.086623 0.745967 
A 18.470246 19.793929 6.694222 
A 6.064868 15.296257 14.806492 
A 6.368818 17.036280 19.762226 
A 8.731083 14.734418 19.978751 
A 12.692960 3.260286 13.359685 
A 5.300944 9.133716 19.490017 
A 16.793282 12.845986 3.791157 
A 16.110901 2.925781 18.229864 
A 3.837797 17.868304 3.344456 
A 3.155279 13.359516 11.471408 
A 11.595643 17.214458 9.789260 
A 2.163336 2.444280 16.513111 
A 3.868524 5.215921 13.154342 
A 18.751836 14.878505 18.362142 
A 5.371700 12.098653 3.766069 
A 9.425749 2.918460 4.892900 
A 19.286767 8.468476 3.882007 
A 2.386524 8.674896 6.679055 
A 5.779480 15.393746 1.309775 
A 15.034867 13.239100 7.646938 
100
timestep 8  
A 12.693619 8.476016 2.429987 
A 14.930451 13.863314 10.768909 
A 10.581960 1.227435 13.458433 
A 18.133269 11.087939 14.761709 
A 1.355103 0.001695 18.298038 
A 5.492114 16.314334 13.771976 
A 17.035395 19.688279 0.438412 
A 4.301429 18.673947 16.969505 
A 7.481222 2.926501 11.391438 
A 1.463615 18.252583 11.642724 
A 2.162558 11.839935 16.887160 
A 14.310120 7.591218 2.491398 
A 2.182790 13.862081 5.182134 
A 1.457382 14.820744 14.511217 
A 13.924710 10.057648 5.868721 
A 1.225617 13.330478 3.225402 
A 5.624702 9.155508 19.965265 
A 13.432726 7.297190 9.518759 
A 19.434216 6.043941 2.704915 
A 10.813508 6.720250 0.662917 
A 18.975457 17.587695 2.158410 
A 16.458244 13.627344 9.534621 
A 1.875675 17.322183 3.470977 
A 16.902280 2.219207 6.747119 
A 1.472205 3.932300 12.987934 
A 18.580037 6.116144 10.944103 
A 1.758949 8.872621 12.993045 
A 1.434987 16.668042 14.335502 
A 16.795847 0.173867 11.017156 
A 13.006240 10.508889 1.395082 
A 17.756942 7.711158 0.188170 
A 8.346847 12.550134 13.794540 
A 11.470290 16.605141 3.519561 
A 14.196112 10.321283 13.608852 
A 18.934484 12.144499 3.477155 
A 9.749193 19.526022 6.430716 
A 5.773341 1.695154 0.069131 
A 6.606465 1.369214 3.847550 
A 5.871951 3.440830 15.439460 
A 19.145223 3.912635 16.610866 
A 0.018363 6.995070 12.426889 
A 16.686630 1.305953 9.678728 
A 19.221887 16.924396 12.000339 
A 3.174590 7.670419 16.521890 
A 14.027863 2.152136 15.493440 
A 9.099946 19.113887 1.106179 
A 10.730346 12.036919 8.123500 
A 3.609879 4.331262 14.839543 
A 9.966277 5.331400 5.690793 
A 1.994894 2.662501 7.678058 
A 3.255650 5.724800 11.963905 
A 10.199920 16.184229 15.070388 
A 9.138909 19.291155 2.541675 
A 17.374492 3.731793 8.883627 
A 6.085658 1.199933 18.326136 
A 14.608253 18.244827 7.308191 
A 11.207627 2.732972 5.327236 
A 3.268810 3.619828 2.422364 
A 9.890019 14.271829 15.700809 
A 17.099548 2.862682 19.161009 
A 19.536884 7.030723 4.141672 
A 14.736259 11.909182 4.526893 
A 17.227350 2.236975 14.085473 
A 16.009952 11.514323 0.871245 
A 6.904840 4.214970 0.535642 
A 9.258410 4.457667 15.212042 
A 3.031794 12.792873 12.909983 
A 11.531193 18.019879 7.232060 
A 18.625234 12.308554 12.688073 
A 12.145847 16.783142 9.565393 
A 9.472568 17.807333 6.849874 
A 13.984941 16.527966 10.242457 
A 2.273657 1.320093 9.621297 
A 13.170302 7.464794 11.927812 
A 5.172605 1.753975 18.163669 
A 7.544581 4.261729 16.820073 
A 9.124124 9.096054 16.309218 
A 4.803272 18.967943 11.816860 
A 14.600633 12.751521 13.603674 
A 9.508384 11.790631 2.227209 
A 1.652107 4.010385 7.155931 
A 5.753516 15.793333 15.012594 
A 5.414050 18.494347 0.501132 
A 7.353735 13.752426 0.480697 
A 3.392776 18.177680 5.940388 
A 8.173805 7.754191 0.417016 
A 16.164064 14.963114 1.827148 
A 16.925608 5.330295 17.424778 
A 3.435374 19.541481 5.817230 
A 12.259916 3.171173 17.061236 
A 12.856900 16.718641 8.967771 
A 0.595770 2.687886 16.403534 
A 5.719550 4.286285 11.532044 
A 18.580909 11.674169 18.051754 
A 0.096532 8.454603 6.706637 
A 8.455835 0.846742 1.265497 
A 1.910656 10.950393 1.161764 
A 2.949227 9.188694 8.009647 
A 2.908327 13.257314 18.811086 
A 8.764494 16.217338 16.422475 
100
timestep 9  
A 6.826280 19.313439 14.245643 
A 7.232544 18.350266 18.413444 
A 10.600849 0.021451 10.879939 
A 0.014297 10.400778 16.603381 
A 0.085877 18.130326 17.816780 
A 5.228706 19.230441 13.325315 
A 16.295854 19.324359 3.624191 
A 4.166288 0.391125 18.690188 
A 4.598014 1.875387 11.150889 
A 2.386145 0.093318 12.572554 
A 1.079507 11.198687 16.813164 
A 16.400264 8.305048 1.183599 
A 15.914824 19.019851 6.143866 
A 1.288128 15.768356 12.843079 
A 11.761504 2.076455 18.337031 
A 5.862534 8.939880 0.177026 
A 6.431477 6.913225 18.218692 
A 17.173305 14.029271 8.987088 
A 17.169858 6.228946 4.382960 
A 2.667143 15.788627 10.639117 
A 18.087926 12.698642 1.216677 
A 16.179319 12.499459 9.255091 
A 19.955592 15.415230 5.562190 
A 18.400147 1.247345 12.508850 
A 8.837936 6.677648 6.918756 
A 0.354904 7.407657 9.351703 
A 19.251092 9.674918 10.332706 
A 15.998974 2.725907 0.235024 
A 16.003525 2.991987 13.208326 
A 10.106945 12.626758 0.430130 
A 3.391073 2.075405 0.559437 
A 9.281266 14.548519 11.895382 
A 11.711722 15.543301 3.376392 
A 12.768739 9.842541 15.581944 
A 18.357862 10.385160 0.538493 
A 10.741512 19.446542 6.452775 
A 11.657731 19.777064 10.103467 
A 8.268046 0.164981 3.427852 
A 8.342073 4.298257 16.767618 
A 1.346861 1.662226 14.251466 
A 18.890860 7.914968 13.225124 
A 16.421963 0.289839 16.555697 
A 18.770360 14.876581 11.573318 
A 4.457267 8.554912 0.033567 
A 12.850983 3.037002 12.721936 
A 9.300980 19.024174 0.994369 
A 10.671901 11.760092 11.457265 