100
timestep 0  
A 6.883936 18.314019 3.718324 
A 13.875793 2.973406 4.632058 
A 9.571934 17.150668 6.300434 
A 4.838764 4.637326 18.523593 
A 10.455936 12.920625 16.937359 
A 6.184449 2.040814 19.957520 
A 6.045558 19.983831 8.518476 
A 11.942965 12.359227 5.877940 
A 8.758053 14.986317 14.471195 
A 13.548092 19.106975 15.444892 
A 4.596093 4.108871 0.835470 
A 1.247139 0.665110 18.505582 
A 3.318982 5.008901 2.570221 
A 13.791079 9.818633 0.682681 
A 14.653406 1.653814 9.057191 
A 13.486888 18.189884 12.871333 
A 17.669579 12.612282 14.619142 
A 3.911011 0.057673 9.050042 
A 2.139949 18.038074 8.042207 
A 2.806694 15.529106 17.576541 
A 5.254737 16.369793 7.111481 
A 2.666123 17.614764 9.194209 
A 9.633320 3.735969 5.764240 
A 3.704319 18.485240 1.426247 
A 10.933571 0.527282 2.027225 
A 11.572507 5.557720 2.825793 
A 13.002092 2.183579 17.347537 
A 9.645721 3.713738 12.575672 
A 18.954847 16.992302 8.687298 
A 13.713083 15.786823 9.129069 
A 12.267378 1.803616 15.427715 
A 4.019826 1.217626 4.646262 
A 9.721616 4.769265 2.812743 
A 13.874003 0.376084 0.836589 
A 0.543522 14.974044 8.763773 
A 12.738418 14.598654 19.581431 
A 5.115220 11.509890 6.729105 
A 16.068885 9.035619 1.286443 
A 8.398849 17.806912 5.745150 
A 5.278258 11.687687 14.959136 
A 18.203083 3.604735 5.768858 
A 1.472915 15.286194 15.055515 
A 18.046152 10.045976 2.530778 
A 1.691423 7.744071 14.593520 
A 13.288448 2.626532 2.783092 
A 16.239343 17.787270 6.942795 
A 12.051760 13.922982 3.562524 
A 15.346565 9.722063 18.710903 
A 4.406949 15.478876 15.853825 
A 12.436025 2.216437 11.435208 
A 15.283163 4.124948 7.996851 
A 3.075461 9.279879 6.927929 
A 17.702789 8.930629 0.410834 
A 0.498167 12.685992 13.460140 
A 4.580835 10.095316 11.968175 
A 9.125232 7.772384 10.460720 
A 13.311046 18.355107 14.278933 
A 14.541937 6.330908 3.565429 
A 4.163387 14.044850 11.795988 
A 15.174117 14.557477 14.509313 
A 4.260164 0.573190 13.600326 
A 0.676430 8.757106 0.672637 
A 5.010232 6.972921 13.876209 
A 17.436728 10.140175 4.212272 
A 5.154760 16.050504 0.827724 
A 11.552374 2.718395 12.492236 
A 13.639493 17.806564 1.136856 
A 15.574380 15.441171 12.768937 
A 1.287165 13.387254 19.577170 
A 14.577814 9.322762 7.667509 
A 7.826087 14.666015 12.267522 
A 4.056793 2.526785 7.679980 
A 17.417660 17.678965 3.693255 
A 7.973724 14.387441 9.723316 
A 19.767279 3.414733 10.129467 
A 13.277657 1.372794 3.277448 
A 4.690312 10.066119 1.269067 
A 9.207430 9.272442 1.932359 
A 17.163976 15.881228 2.462531 
A 12.325630 18.004780 0.129132 
A 1.878554 12.853987 16.951673 
A 6.765475 7.340777 16.440731 
A 19.370600 18.309082 10.115164 
A 1.440599 12.147907 9.865062 
A 2.093306 18.866229 15.407550 
A 2.599033 1.945710 1.539934 
A 1.668016 17.677430 13.862501 
A 19.142572 9.214871 14.330622 
A 14.772122 15.055812 3.031640 
A 12.770791 18.683149 7.690471 
A 13.751439 13.491388 5.413551 
A 7.327909 2.528088 9.083769 
A 6.960618 7.113707 0.073768 
A 19.818980 3.974013 7.335368 
A 18.990227 3.221520 8.264404 
A 14.759513 1.276891 7.300635 
A 12.498182 16.945639 5.357800 
A 8.542938 2.271785 7.054054 
A 17.312976 16.523663 8.476523 
A 5.651635 15.730328 17.343977 
100
timestep 1  
A 6.883936 18.314019 3.718324 
A 13.877112 2.975057 4.635840 
A 9.588879 17.141189 6.308455 
A 4.838847 4.637506 18.522804 
A 10.455936 12.920625 16.937359 
A 6.184449 2.040814 19.957520 
A 6.046930 19.983784 8.518134 
A 11.941727 12.358452 5.878258 
A 8.758341 14.986416 14.471876 
A 13.552245 19.120170 15.465391 
A 4.596525 4.108328 0.835561 
A 1.247139 0.665110 18.505582 
A 3.318467 5.009264 2.570921 
A 13.790517 9.818826 0.682532 
A 14.653078 1.654980 9.062624 
A 13.489699 18.187210 12.848726 
A 17.669579 12.612282 14.619142 
A 3.909638 0.057721 9.050384 
A 2.127586 18.048020 8.015139 
A 2.806086 15.529125 17.577196 
A 5.254737 16.369793 7.111481 
A 2.678486 17.604818 9.221276 
A 9.633941 3.736802 5.763507 
A 3.704319 18.485240 1.426247 
A 10.933571 0.527282 2.027225 
A 11.574919 5.558748 2.825810 
A 13.002801 2.183945 17.349390 
A 9.644268 3.714497 12.575737 
A 18.961396 16.992449 8.686163 
A 13.713083 15.786823 9.129069 
A 12.266669 1.803249 15.425863 
A 4.019826 1.217626 4.646262 
A 9.719204 4.768237 2.812726 
A 13.874003 0.376084 0.836589 
A 0.543522 14.974044 8.763773 
A 12.738418 14.598654 19.581431 
A 5.115220 11.509890 6.729105 
A 16.065471 9.035681 1.288723 
A 8.381904 17.816391 5.737129 
A 5.278258 11.687687 14.959136 
A 18.202299 3.604556 5.768097 
A 1.472915 15.286194 15.055515 
A 18.048212 10.046011 2.526024 
A 1.691423 7.744071 14.593520 
A 13.287790 2.654195 2.769139 
A 16.238781 17.787931 6.941993 
A 12.051760 13.922982 3.562524 
A 15.346565 9.722063 18.710903 
A 4.405551 15.478451 15.850767 
A 12.448119 2.209567 11.420743 
A 15.283163 4.124948 7.996851 
A 3.075461 9.279879 6.927929 
A 17.706661 8.930036 0.408062 
A 0.498167 12.685992 13.460140 
A 4.580835 10.095316 11.968175 
A 9.125232 7.772384 10.460720 
A 13.304082 18.344585 14.281040 
A 14.541937 6.330908 3.565429 
A 4.163387 14.044850 11.795988 
A 15.173555 14.556235 14.511760 
A 4.260164 0.573190 13.600326 
A 0.676430 8.757106 0.672637 
A 5.010232 6.972921 13.876209 
A 17.434772 10.140477 4.217668 
A 5.154760 16.050504 0.827724 
A 11.541733 2.724506 12.506636 
A 13.646722 17.805474 1.142401 
A 15.574943 15.442413 12.766490 
A 1.287165 13.387254 19.577170 
A 14.577814 9.322762 7.667509 
A 7.825799 14.665916 12.266840 
A 4.056793 2.526785 7.679980 
A 17.417828 17.680152 3.694068 
A 7.973724 14.387441 9.723316 
A 19.768219 3.414966 10.131731 
A 13.276996 1.343479 3.287619 
A 4.690312 10.066119 1.269067 
A 9.207430 9.272442 1.932359 
A 17.163808 15.880040 2.461718 
A 12.318400 18.005871 0.123587 
A 1.878554 12.853987 16.951673 
A 6.765475 7.340777 16.440731 
A 19.371199 18.310976 10.117217 
A 1.440599 12.147907 9.865062 
A 2.093897 18.867882 15.409698 
A 2.599033 1.945710 1.539934 
A 1.667425 17.675777 13.860353 
A 19.142572 9.214871 14.330622 
A 14.772122 15.055812 3.031640 
A 12.770791 18.683149 7.690471 
A 13.752677 13.492163 5.413233 
A 7.327488 2.528177 9.084472 
A 6.960618 7.113707 0.073768 
A 19.831708 3.985038 7.322731 
A 18.977342 3.210440 8.275538 
A 14.759841 1.275725 7.295202 
A 12.498182 16.945639 5.357800 
A 8.542739 2.270863 7.054084 
A 17.306390 16.520962 8.476407 
A 5.653642 15.730734 17.346380 
100
timestep 2  
A 6.883936 18.314019 3.718324 
A 13.879259 2.977719 4.642010 
A 9.615295 17.126411 6.320959 
A 4.838984 4.637807 18.521489 
A 10.455936 12.920625 16.937359 
A 6.184449 2.040814 19.957520 
A 6.049208 19.983705 8.517567 
A 11.939673 12.357166 5.878786 
A 8.758821 14.986581 14.473009 
A 13.558926 19.141267 15.497957 
A 4.597243 4.107423 0.835712 
A 1.247139 0.665110 18.505582 
A 3.317610 5.009868 2.572084 
A 13.789578 9.819149 0.682283 
A 14.652541 1.656888 9.071519 
A 13.494278 18.183039 12.812484 
A 17.669579 12.612282 14.619142 
A 3.907360 0.057800 9.050951 
A 2.108592 18.063301 7.973553 
A 2.805074 15.529157 17.578286 
A 5.254737 16.369793 7.111481 
A 2.697480 17.589536 9.262863 
A 9.634971 3.738186 5.762287 
A 3.704319 18.485240 1.426247 
A 10.933571 0.527282 2.027225 
A 11.578909 5.560447 2.825838 
A 13.003976 2.184553 17.352459 
A 9.641805 3.715782 12.575839 
A 18.972065 16.992628 8.684241 
A 13.713083 15.786823 9.129069 
A 12.265494 1.802641 15.422793 
A 4.019826 1.217626 4.646262 
A 9.715215 4.766538 2.812698 
A 13.874003 0.376084 0.836589 
A 0.543522 14.974044 8.763773 
A 12.738418 14.598654 19.581431 
A 5.115220 11.509890 6.729105 
A 16.059877 9.035778 1.292475 
A 8.355488 17.831168 5.724624 
A 5.278258 11.687687 14.959136 
A 18.200995 3.604256 5.766839 
A 1.472915 15.286194 15.055515 
A 18.051588 10.046081 2.518261 
A 1.691423 7.744071 14.593520 
A 13.286685 2.696586 2.747429 
A 16.237845 17.789035 6.940654 
A 12.051760 13.922982 3.562524 
A 15.346565 9.722063 18.710903 
A 4.403250 15.477750 15.845711 
A 12.467047 2.198814 11.398091 
A 15.283163 4.124948 7.996851 
A 3.075461 9.279879 6.927929 
A 17.713021 8.929051 0.403486 
A 0.498167 12.685992 13.460140 
A 4.580835 10.095316 11.968175 
A 9.125232 7.772384 10.460720 
A 13.292822 18.327660 14.284716 
A 14.541937 6.330908 3.565429 
A 4.163387 14.044850 11.795988 
A 15.172625 14.554182 14.515804 
A 4.260164 0.573190 13.600326 
A 0.676430 8.757106 0.672637 
A 5.010232 6.972921 13.876209 
A 17.431570 10.140972 4.226503 
A 5.154760 16.050504 0.827724 
A 11.525268 2.733973 12.529186 
A 13.658410 17.803710 1.151365 
A 15.575873 15.444466 12.762446 
A 1.287165 13.387254 19.577170 
A 14.577814 9.322762 7.667509 
A 7.825320 14.665751 12.265707 
A 4.056793 2.526785 7.679980 
A 17.418106 17.682124 3.695418 
A 7.973724 14.387441 9.723316 
A 19.769805 3.415365 10.135507 
A 13.275954 1.298427 3.303159 
A 4.690312 10.066119 1.269067 
A 9.207430 9.272442 1.932359 
A 17.163530 15.878069 2.460369 
A 12.306713 18.007634 0.114623 
A 1.878554 12.853987 16.951673 
A 6.765475 7.340777 16.440731 
A 19.372188 18.314122 10.120630 
A 1.440599 12.147907 9.865062 
A 2.094875 18.870614 15.413248 
A 2.599033 1.945710 1.539934 
A 1.666448 17.673045 13.856802 
A 19.142572 9.214871 14.330622 
A 14.772122 15.055812 3.031640 
A 12.770791 18.683149 7.690471 
A 13.754731 13.493449 5.412705 
A 7.326787 2.528325 9.085644 
A 6.960618 7.113707 0.073768 
A 19.851674 4.002276 7.303100 
A 18.957096 3.193103 8.292651 
A 14.760378 1.273817 7.286307 
A 12.498182 16.945639 5.357800 
A 8.542409 2.269331 7.054132 
A 17.295668 16.516532 8.476255 
A 5.656954 15.731403 17.350346 
100
timestep 3  
A 6.883936 18.314019 3.718324 
A 13.882167 2.981278 4.650383 
A 9.649073 17.107515 6.336948 
A 4.839177 4.638227 18.519653 
A 10.455936 12.920625 16.937359 
A 6.184449 2.040814 19.957520 
A 6.052378 19.983595 8.516777 
A 11.936815 12.355377 5.879520 
A 8.759490 14.986811 14.474592 
A 13.567805 19.169086 15.540548 
A 4.598247 4.106160 0.835924 
A 1.247139 0.665110 18.505582 
A 3.316414 5.010711 2.573708 
A 13.788259 9.819603 0.681931 
A 14.651808 1.659492 9.083652 
A 13.500462 18.177715 12.764512 
A 17.669579 12.612282 14.619142 
A 3.904190 0.057909 9.051741 
A 2.084938 18.082331 7.921765 
A 2.803666 15.529201 17.579806 
A 5.254737 16.369793 7.111481 
A 2.721134 17.570507 9.314651 
A 9.636409 3.740117 5.760588 
A 3.704319 18.485240 1.426247 
A 10.933571 0.527282 2.027225 
A 11.584429 5.562799 2.825877 
A 13.005607 2.185396 17.356720 
A 9.638277 3.717623 12.575967 
A 18.986524 16.992754 8.681492 
A 13.713083 15.786823 9.129069 
A 12.263864 1.801798 15.418533 
A 4.019826 1.217626 4.646262 
A 9.709694 4.764186 2.812659 
A 13.874003 0.376084 0.836589 
A 0.543522 14.974044 8.763773 
A 12.738418 14.598654 19.581431 
A 5.115220 11.509890 6.729105 
A 16.052236 9.035901 1.297634 
A 8.321710 17.850064 5.708635 
A 5.278258 11.687687 14.959136 
A 18.199174 3.603831 5.765100 
A 1.472915 15.286194 15.055515 
A 18.056203 10.046201 2.507711 
A 1.691423 7.744071 14.593520 
A 13.285133 2.749299 2.719828 
A 16.236539 17.790585 6.938777 
A 12.051760 13.922982 3.562524 
A 15.346565 9.722063 18.710903 
A 4.400089 15.476782 15.838716 
A 12.491374 2.184994 11.368955 
A 15.283163 4.124948 7.996851 
A 3.075461 9.279879 6.927929 
A 17.721738 8.927681 0.397173 
A 0.498167 12.685992 13.460140 
A 4.580835 10.095316 11.968175 
A 9.125232 7.772384 10.460720 
A 13.277759 18.305165 14.290097 
A 14.541937 6.330908 3.565429 
A 4.163387 14.044850 11.795988 
A 15.171339 14.551343 14.521395 
A 4.260164 0.573190 13.600326 
A 0.676430 8.757106 0.672637 
A 5.010232 6.972921 13.876209 
A 17.427198 10.141645 4.238560 
A 5.154760 16.050504 0.827724 
A 11.504469 2.745953 12.558194 
A 13.674079 17.801346 1.163383 
A 15.577159 15.447305 12.756855 
A 1.287165 13.387254 19.577170 
A 14.577814 9.322762 7.667509 
A 7.824651 14.665521 12.264125 
A 4.056793 2.526785 7.679980 
A 17.418493 17.684867 3.697296 
A 7.973724 14.387441 9.723316 
A 19.772056 3.415947 10.140794 
A 13.274598 1.242153 3.322387 
A 4.690312 10.066119 1.269067 
A 9.207430 9.272442 1.932359 
A 17.163143 15.875325 2.458490 
A 12.291043 18.009998 0.102604 
A 1.878554 12.853987 16.951673 
A 6.765475 7.340777 16.440731 
A 19.373550 18.318505 10.125386 
A 1.440599 12.147907 9.865062 
A 2.096226 18.874391 15.418158 
A 2.599033 1.945710 1.539934 
A 1.665096 17.669267 13.851892 
A 19.142572 9.214871 14.330622 
A 14.772122 15.055812 3.031640 
A 12.770791 18.683149 7.690471 
A 13.757590 13.495239 5.411971 
A 7.325807 2.528533 9.087281 
A 6.960618 7.113707 0.073768 
A 19.877424 4.024402 7.278123 
A 18.930916 3.170820 8.314079 
A 14.761111 1.271213 7.274175 
A 12.498182 16.945639 5.357800 
A 8.541952 2.267192 7.054195 
A 17.281152 16.510475 8.476125 
A 5.661523 15.732326 17.355821 
100
timestep 4  
A 6.883711 18.314092 3.718013 
A 13.885753 2.985604 4.660737 
A 9.688178 17.085639 6.355458 
A 4.839423 4.638766 18.517298 
A 10.455936 12.920625 16.937359 
A 6.184449 2.040814 19.957520 
A 6.056423 19.983455 8.515770 
A 11.933170 12.353095 5.880456 
A 8.760347 14.987105 14.476618 
A 13.578495 19.202297 15.590941 
A 4.599533 4.104540 0.836198 
A 1.247139 0.665110 18.505582 
A 3.314881 5.011792 2.575789 
A 13.786556 9.820190 0.681475 
A 14.650896 1.662730 9.098743 
A 13.508037 18.171595 12.707009 
A 17.669579 12.612282 14.619142 
A 3.900145 0.058049 9.052748 
A 2.058351 18.103720 7.863556 
A 2.801868 15.529259 17.581751 
A 5.254737 16.369793 7.111481 
A 2.747721 17.549117 9.372860 
A 9.638246 3.742587 5.758415 
A 3.704319 18.485240 1.426247 
A 10.933571 0.527282 2.027225 
A 11.591421 5.565777 2.825926 
A 13.007679 2.186468 17.362136 
A 9.633610 3.720057 12.576106 
A 19.004369 16.992724 8.677871 
A 13.713083 15.786823 9.129069 
A 12.261791 1.800726 15.413117 
A 4.019826 1.217626 4.646262 
A 9.702703 4.761208 2.812610 
A 13.874003 0.376084 0.836589 
A 0.543522 14.974044 8.763773 
A 12.738418 14.598654 19.581431 
A 5.115220 11.509890 6.729105 
A 16.042719 9.036037 1.304116 
A 8.282830 17.871868 5.690437 
A 5.278258 11.687687 14.959136 
A 18.196842 3.603278 5.762901 
A 1.472915 15.286194 15.055515 
A 18.061959 10.046391 2.494649 
A 1.691423 7.744071 14.593520 
A 13.283153 2.808515 2.688018 
A 16.234866 17.792584 6.936360 
A 12.051760 13.922982 3.562524 
A 15.346565 9.722063 18.710903 
A 4.396125 15.475559 15.829861 
A 12.519689 2.168906 11.335013 
A 15.283163 4.124948 7.996851 
A 3.075461 9.279879 6.927929 
A 17.732646 8.925932 0.389203 
A 0.498167 12.685992 13.460140 
A 4.580835 10.095316 11.968175 
A 9.125232 7.772384 10.460720 
A 13.259494 18.278075 14.297207 
A 14.541937 6.330908 3.565429 
A 4.163387 14.044850 11.795988 
A 15.169712 14.547751 14.528467 
A 4.260164 0.573190 13.600326 
A 0.676430 8.757106 0.672637 
A 5.010232 6.972921 13.876209 
A 17.421754 10.142481 4.253565 
A 5.154760 16.050504 0.827724 
A 11.480821 2.759606 12.591997 
A 13.693179 17.798465 1.178032 
A 15.578785 15.450897 12.749783 
A 1.287165 13.387254 19.577170 
A 14.577814 9.322762 7.667509 
A 7.823794 14.665227 12.262098 
A 4.056793 2.526785 7.679980 
A 17.418987 17.688367 3.699692 
A 7.973724 14.387441 9.723316 
A 19.774998 3.416730 10.147581 
A 13.272992 1.178613 3.343843 
A 4.690312 10.066119 1.269067 
A 9.207430 9.272442 1.932359 
A 17.162649 15.871825 2.456095 
A 12.271944 18.012879 0.087955 
A 1.878554 12.853987 16.951673 
A 6.765475 7.340777 16.440731 
A 19.375267 18.324100 10.131464 
A 1.440599 12.147907 9.865062 
A 2.097936 18.879171 15.424371 
A 2.599033 1.945710 1.539934 
A 1.663386 17.664487 13.845680 
A 19.142572 9.214871 14.330622 
A 14.772122 15.055812 3.031640 
A 12.770791 18.683149 7.690471 
A 13.761234 13.497520 5.411035 
A 7.324550 2.528800 9.089381 
A 6.960618 7.113707 0.073768 
A 19.907536 4.050130 7.249391 
A 18.900193 3.144862 8.338223 
A 14.762023 1.267975 7.259083 
A 12.498182 16.945639 5.357800 
A 8.541371 2.264456 7.054267 
A 17.263264 16.502910 8.476085 
A 5.667285 15.733492 17.362731 
100
timestep 5  
A 6.883236 18.314243 3.717349 
A 13.889930 2.990565 4.672831 
A 9.730972 17.061700 6.375715 
A 4.839723 4.639424 18.514429 
A 10.455936 12.920625 16.937359 
A 6.184449 2.040814 19.957520 
A 6.061321 19.983286 8.514550 
A 11.928760 12.350334 5.881588 
A 8.761390 14.987463 14.479084 
A 13.590609 19.239635 15.647113 
A 4.601100 4.102566 0.836536 
A 1.247139 0.665110 18.505582 
A 3.313016 5.013108 2.578320 
A 13.784464 9.820913 0.680912 
A 14.649825 1.666537 9.116483 
A 13.516766 18.164980 12.642123 
A 17.669579 12.612282 14.619142 
A 3.895247 0.058219 9.053968 
A 2.030010 18.126520 7.801507 
A 2.799689 15.529329 17.584115 
A 5.254737 16.369793 7.111481 
A 2.776062 17.526317 9.434909 
A 9.640477 3.745586 5.755777 
A 3.704319 18.485240 1.426247 
A 10.933571 0.527282 2.027225 
A 11.599810 5.569351 2.825985 
A 13.010177 2.187760 17.368663 
A 9.627718 3.723127 12.576234 
A 19.025165 16.992434 8.673340 
A 13.713083 15.786823 9.129069 
A 12.259293 1.799434 15.406589 
A 4.019826 1.217626 4.646262 
A 9.694313 4.757634 2.812551 
A 13.874003 0.376084 0.836589 
A 0.543522 14.974044 8.763773 
A 12.738418 14.598654 19.581431 
A 5.115220 11.509890 6.729105 
A 16.031525 9.036172 1.311825 
A 8.240511 17.895656 5.670844 
A 5.278258 11.687687 14.959136 
A 18.194011 3.602595 5.760268 
A 1.472915 15.286194 15.055515 
A 18.068746 10.046671 2.479387 
A 1.691423 7.744071 14.593520 
A 13.280780 2.871623 2.653225 
A 16.232832 17.795037 6.933401 
A 12.051760 13.922982 3.562524 
A 15.346565 9.722063 18.710903 
A 4.391423 15.474097 15.819238 
A 12.550825 2.151215 11.297658 
A 15.283163 4.124948 7.996851 
A 3.075461 9.279879 6.927929 
A 17.745551 8.923813 0.379670 
A 0.498167 12.685992 13.460140 
A 4.580835 10.095316 11.968175 
A 9.125232 7.772384 10.460720 
A 13.238650 18.247351 14.305921 
A 14.541937 6.330908 3.565429 
A 4.163387 14.044850 11.795988 
A 15.167763 14.543448 14.536943 
A 4.260164 0.573190 13.600326 
A 0.676430 8.757106 0.672637 
A 5.010232 6.972921 13.876209 
A 17.415348 10.143462 4.271214 
A 5.154760 16.050504 0.827724 
A 11.455576 2.774227 12.629224 
A 13.715143 17.795151 1.194879 
A 15.580735 15.455200 12.741306 
A 1.287165 13.387254 19.577170 
A 14.577814 9.322762 7.667509 
A 7.822751 14.664868 12.259632 
A 4.056793 2.526785 7.679980 
A 17.419585 17.692603 3.702592 
A 7.973724 14.387441 9.723316 
A 19.778653 3.417734 10.155842 
A 13.271188 1.110544 3.366542 
A 4.690312 10.066119 1.269067 
A 9.207430 9.272442 1.932359 
A 17.162051 15.867590 2.453195 
A 12.249979 18.016193 0.071109 
A 1.878554 12.853987 16.951673 
A 6.765475 7.340777 16.440731 
A 19.377313 18.330879 10.138833 
A 1.440599 12.147907 9.865062 
A 2.099986 18.884901 15.431817 
A 2.599033 1.945710 1.539934 
A 1.661337 17.658758 13.838234 
A 19.142572 9.214871 14.330622 
A 14.772122 15.055812 3.031640 
A 12.770791 18.683149 7.690471 
A 13.765645 13.500281 5.409903 
A 7.323018 2.529127 9.091942 
A 6.960618 7.113707 0.073768 
A 19.940844 4.078412 7.218179 
A 18.866061 3.116259 8.363808 
A 14.763095 1.264168 7.241343 
A 12.498182 16.945639 5.357800 
A 8.540673 2.261129 7.054344 
A 17.242456 16.493968 8.476205 
A 5.674167 15.734884 17.370991 
100
timestep 6  
A 6.882483 18.314481 3.716285 
A 13.894615 2.996042 4.686429 
A 9.776268 17.036360 6.397154 
A 4.840075 4.640199 18.511051 
A 10.455936 12.920625 16.937359 
A 6.184449 2.040814 19.957520 
A 6.067044 19.983088 8.513125 
A 11.923609 12.347110 5.882911 
A 8.762615 14.987885 14.481981 
A 13.603810 19.280036 15.707424 
A 4.602942 4.100243 0.836939 
A 1.247139 0.665110 18.505582 
A 3.310821 5.014656 2.581296 
A 13.781975 9.821773 0.680238 
A 14.648612 1.670843 9.136552 
A 13.526417 18.158093 12.571724 
A 17.669579 12.612282 14.619142 
A 3.889524 0.058417 9.055393 
A 2.000632 18.150155 7.737188 
A 2.797140 15.529412 17.586889 
A 5.254737 16.369793 7.111481 
A 2.805440 17.502683 9.499228 
A 9.643092 3.749105 5.752686 
A 3.704319 18.485240 1.426247 
A 10.933571 0.527282 2.027225 
A 11.609516 5.573485 2.826054 
A 13.013082 2.189262 17.376253 
A 9.620510 3.726881 12.576324 
A 19.048485 16.991791 8.667870 
A 13.713083 15.786823 9.129069 
A 12.256388 1.797932 15.398999 
A 4.019826 1.217626 4.646262 
A 9.684608 4.753500 2.812482 
A 13.874003 0.376084 0.836589 
A 0.543522 14.974044 8.763773 
A 12.738418 14.598654 19.581431 
A 5.115220 11.509890 6.729105 
A 16.018862 9.036292 1.320659 
A 8.195969 17.920758 5.650469 
A 5.278258 11.687687 14.959136 
A 18.190694 3.601779 5.757229 
A 1.472915 15.286194 15.055515 
A 18.076452 10.047066 2.462242 
A 1.691423 7.744071 14.593520 
A 13.278060 2.937043 2.616273 
A 16.230442 17.797947 6.929900 
A 12.051760 13.922982 3.562524 
A 15.346565 9.722063 18.710903 
A 4.386054 15.472411 15.806950 
A 12.583913 2.132414 11.257930 
A 15.283163 4.124948 7.996851 
A 3.075461 9.279879 6.927929 
A 17.760252 8.921332 0.368675 
A 0.498167 12.685992 13.460140 
A 4.580835 10.095316 11.968175 
A 9.125232 7.772384 10.460720 
A 13.215799 18.213837 14.316008 
A 14.541937 6.330908 3.565429 
A 4.163387 14.044850 11.795988 
A 15.165511 14.538476 14.546735 
A 4.260164 0.573190 13.600326 
A 0.676430 8.757106 0.672637 
A 5.010232 6.972921 13.876209 
A 17.408093 10.144568 4.291195 
A 5.154760 16.050504 0.827724 
A 11.429697 2.789274 12.668862 
A 13.739446 17.791485 1.213519 
A 15.582987 15.460172 12.731515 
A 1.287165 13.387254 19.577170 
A 14.577814 9.322762 7.667509 
A 7.821525 14.664447 12.256735 
A 4.056793 2.526785 7.679980 
A 17.420283 17.697552 3.705980 
A 7.973724 14.387441 9.723316 
A 19.783036 3.418979 10.165532 
A 13.269223 1.039646 3.389896 
A 4.690312 10.066119 1.269067 
A 9.207430 9.272442 1.932359 
A 17.161353 15.862641 2.449807 
A 12.225676 18.019860 0.052468 
A 1.878554 12.853987 16.951673 
A 6.765475 7.340777 16.440731 
A 19.379660 18.338800 10.147454 
A 1.440599 12.147907 9.865062 
A 2.102354 18.891521 15.440421 
A 2.599033 1.945710 1.539934 
A 1.658968 17.652138 13.829630 
A 19.142572 9.214871 14.330622 
A 14.772122 15.055812 3.031640 
A 12.770791 18.683149 7.690471 
A 13.770795 13.503506 5.408580 
A 7.321213 2.529513 9.094959 
A 6.960618 7.113707 0.073768 
A 19.976483 4.108478 7.185404 
A 18.829356 3.085763 8.389931 
A 14.764307 1.259862 7.221274 
A 12.498182 16.945639 5.357800 
A 8.539862 2.257224 7.054419 
A 17.219179 16.483779 8.476556 
A 5.682085 15.736487 17.380504 
100
timestep 7  
A 6.881418 18.314812 3.714761 
A 13.899727 3.001933 4.701306 
A 9.823251 17.010076 6.419390 
A 4.840478 4.641092 18.507170 
A 10.455936 12.920625 16.937359 
A 6.184449 2.040814 19.957520 
A 6.073564 19.982862 8.511502 
A 11.917746 12.343439 5.884416 
A 8.764020 14.988367 14.485303 
A 13.617822 19.322666 15.770644 
A 4.605057 4.097574 0.837407 
A 1.247139 0.665110 18.505582 
A 3.308304 5.016433 2.584708 
A 13.779085 9.822775 0.679448 
A 14.647278 1.675582 9.158638 
A 13.536783 18.151077 12.497308 
A 17.669579 12.612282 14.619142 
A 3.883004 0.058642 9.057017 
A 1.970635 18.174288 7.671510 
A 2.794232 15.529508 17.590065 
A 5.254737 16.369793 7.111481 
A 2.835437 17.478549 9.564905 
A 9.646082 3.753129 5.749152 
A 3.704319 18.485240 1.426247 
A 10.933571 0.527282 2.027225 
A 11.620449 5.578143 2.826131 
A 13.016372 2.190964 17.384850 
A 9.611893 3.731365 12.576342 
A 19.073930 16.990716 8.661445 
A 13.713083 15.786823 9.129069 
A 12.253098 1.796231 15.390402 
A 4.019826 1.217626 4.646262 
A 9.673674 4.748842 2.812405 
A 13.874003 0.376084 0.836589 
A 0.543522 14.974044 8.763773 
A 12.738418 14.598654 19.581431 
A 5.115220 11.509890 6.729105 
A 16.004943 9.036380 1.330514 
A 8.150051 17.946711 5.629756 
A 5.278258 11.687687 14.959136 
A 18.186910 3.600831 5.753817 
A 1.472915 15.286194 15.055515 
A 18.084968 10.047598 2.443526 
A 1.691423 7.744071 14.593520 
A 13.275041 3.003859 2.577716 
A 16.227706 17.801318 6.925858 
A 12.051760 13.922982 3.562524 
A 15.346565 9.722063 18.710903 
A 4.380094 15.470518 15.793108 
A 12.618343 2.112849 11.216562 
A 15.283163 4.124948 7.996851 
A 3.075461 9.279879 6.927929 
A 17.776541 8.918497 0.356320 
A 0.498167 12.685992 13.460140 
A 4.580835 10.095316 11.968175 
A 9.125232 7.772384 10.460720 
A 13.191421 18.178224 14.327205 
A 14.541937 6.330908 3.565429 
A 4.163387 14.044850 11.795988 
A 15.162978 14.532884 14.557747 
A 4.260164 0.573190 13.600326 
A 0.676430 8.757106 0.672637 
A 5.010232 6.972921 13.876209 
A 17.400097 10.145782 4.313200 
A 5.154760 16.050504 0.827724 
A 11.403884 2.804355 12.710212 
A 13.765628 17.787535 1.233601 
A 15.585519 15.465764 12.720503 
A 1.287165 13.387254 19.577170 
A 14.577814 9.322762 7.667509 
A 7.820121 14.663964 12.253413 
A 4.056793 2.526785 7.679980 
A 17.421079 17.703187 3.709838 
A 7.973724 14.387441 9.723316 
A 19.788152 3.420480 10.176589 
A 13.267129 0.966940 3.413576 
A 4.690312 10.066119 1.269067 
A 9.207430 9.272442 1.932359 
A 17.160558 15.857005 2.445949 
A 12.199494 18.023809 0.032387 
A 1.878554 12.853987 16.951673 
A 6.765475 7.340777 16.440731 
A 19.382277 18.347819 10.157279 
A 1.440599 12.147907 9.865062 
A 2.105018 18.898968 15.450100 
A 2.599033 1.945710 1.539934 
A 1.656304 17.644691 13.819951 
A 19.142572 9.214871 14.330622 
A 14.772122 15.055812 3.031640 
A 12.770791 18.683149 7.690471 
A 13.776658 13.507176 5.407075 
A 7.319138 2.529961 9.098428 
A 6.960618 7.113707 0.073768 
A 0.013846 4.139796 7.151685 
A 18.790661 3.053892 8.416006 
A 14.765641 1.255123 7.199188 
A 12.498182 16.945639 5.357800 
A 8.538947 2.252752 7.054483 
A 17.193853 16.472465 8.477198 
A 5.690952 15.738284 17.391171 
100
timestep 8  
A 6.880002 18.315244 3.712709 
A 13.905196 3.008150 4.717260 
A 9.871378 16.983152 6.442167 
A 4.840931 4.642099 18.502794 
A 10.455936 12.920625 16.937359 
A 6.184449 2.040814 19.957520 
A 6.080848 19.982610 8.509688 
A 11.911201 12.339342 5.886097 
A 8.765601 14.988911 14.489041 
A 13.632433 19.366903 15.835892 
A 4.607439 4.094564 0.837944 
A 1.247139 0.665110 18.505582 
A 3.305468 5.018435 2.588548 
A 13.775786 9.823921 0.678539 
A 14.645840 1.680692 9.182453 
A 13.547694 18.144018 12.420003 
A 17.669579 12.612282 14.619142 
A 3.875720 0.058894 9.058831 
A 1.940258 18.198726 7.605004 
A 2.790979 15.529617 17.593632 
A 5.254737 16.369793 7.111481 
A 2.865814 17.454111 9.631411 
A 9.649435 3.757647 5.745190 
A 3.704319 18.485240 1.426247 
A 10.933571 0.527282 2.027225 
A 11.632518 5.583284 2.826216 
A 13.020026 2.192853 17.394397 
A 9.601782 3.736622 12.576248 
A 19.100914 16.989468 8.654050 
A 13.713083 15.786823 9.129069 
A 12.249445 1.794341 15.380856 
A 4.019826 1.217626 4.646262 
A 9.661605 4.743701 2.812320 
A 13.874003 0.376084 0.836589 
A 0.543753 14.973727 8.763789 
A 12.738418 14.598654 19.581431 
A 5.115220 11.509890 6.729105 
A 15.989975 9.036420 1.341292 
A 8.103339 17.973203 5.609032 
A 5.278258 11.687687 14.959136 
A 18.182679 3.599751 5.750063 
A 1.472915 15.286194 15.055515 
A 18.094189 10.048287 2.423530 
A 1.691423 7.744071 14.593520 
A 13.271771 3.071546 2.537932 
A 16.224634 17.805151 6.921276 
A 12.051760 13.922982 3.562524 
A 15.346565 9.722063 18.710903 
A 4.373617 15.468437 15.777823 
A 12.653698 2.092757 11.174056 
A 15.283163 4.124948 7.996851 
A 3.075461 9.279879 6.927929 
A 17.794222 8.915315 0.342701 
A 0.498167 12.685992 13.460140 
A 4.580835 10.095316 11.968175 
A 9.125232 7.772384 10.460720 
A 13.165899 18.141045 14.339263 
A 14.541937 6.330908 3.565429 
A 4.163387 14.044850 11.795988 
A 15.160187 14.526722 14.569884 
A 4.260164 0.573190 13.600326 
A 0.676430 8.757106 0.672637 
A 5.010232 6.972921 13.876209 
A 17.391463 10.147088 4.336947 
A 5.154760 16.050504 0.827724 
A 11.378640 2.819190 12.752812 
A 13.793302 17.783360 1.254826 
A 15.588311 15.471926 12.708366 
A 1.287165 13.387254 19.577170 
A 14.577814 9.322762 7.667509 
A 7.818540 14.663421 12.249675 
A 4.056793 2.526785 7.679980 
A 17.421967 17.709481 3.714147 
A 7.973724 14.387441 9.723316 
A 19.793997 3.422249 10.188931 
A 13.264930 0.893035 3.437406 
A 4.690312 10.066119 1.269067 
A 9.207430 9.272442 1.932359 
A 17.159669 15.850711 2.441640 
A 12.171821 18.027984 0.011162 
A 1.878554 12.853987 16.951673 
A 6.765475 7.340777 16.440731 
A 19.385131 18.357880 10.168255 
A 1.440599 12.147907 9.865062 
A 2.107955 18.907177 15.460769 
A 2.599033 1.945710 1.539934 
A 1.653367 17.636481 13.809281 
A 19.142572 9.214871 14.330622 
A 14.772122 15.055812 3.031640 
A 12.770791 18.683149 7.690471 
A 13.783203 13.511273 5.405394 
A 7.316797 2.530468 9.102343 
A 6.960618 7.113707 0.073768 
A 0.052512 4.172007 7.117421 
A 18.750380 3.020992 8.441681 
A 14.767079 1.250012 7.175373 
A 12.498182 16.945639 5.357800 
A 8.537935 2.247727 7.054530 
A 17.166856 16.460136 8.478183 
A 5.700682 15.740256 17.402888 
100
timestep 9  
A 6.878194 18.315787 3.710047 
A 13.910878 3.014346 4.733943 
A 9.920291 16.955788 6.465313 
A 4.841433 4.643221 18.497929 
A 10.455936 12.920625 16.937359 
A 6.184449 2.040814 19.957520 
A 6.088862 19.982333 8.507692 
A 11.904007 12.334838 5.887944 
A 8.767353 14.989513 14.493184 
A 13.647484 19.412298 15.902552 
A 4.610083 4.091219 0.838549 
A 1.247139 0.665110 18.505582 
A 3.302322 5.020657 2.592807 
A 13.772069 9.825216 0.677505 
A 14.644312 1.686117 9.207734 
A 13.559016 18.136963 12.340632 
A 17.669579 12.612282 14.619142 
A 3.867706 0.059171 9.060827 
A 1.909645 18.223355 7.537980 
A 2.787396 15.529739 17.597578 
A 5.254737 16.369793 7.111481 
A 2.896427 17.429483 9.698436 
A 9.653140 3.762642 5.740814 
A 3.704319 18.485240 1.426247 
A 10.933571 0.527282 2.027225 
A 11.645632 5.588870 2.826308 
A 13.024019 2.194918 17.404832 
A 9.590104 3.742688 12.575999 
A 19.129125 16.988027 8.645701 
A 13.713083 15.786823 9.129069 
A 12.245451 1.792276 15.370421 
A 4.019826 1.217626 4.646262 
A 9.648491 4.738115 2.812228 
A 13.874003 0.376084 0.836589 
A 0.544223 14.973076 8.763824 
A 12.738418 14.598654 19.581431 
A 5.115220 11.509890 6.729105 
A 15.974151 9.036398 1.352898 
A 8.056235 18.000025 5.588547 
A 5.278258 11.687687 14.959136 
A 18.178026 3.598542 5.746000 
A 1.472915 15.286194 15.055515 
A 18.104023 10.049154 2.402517 
A 1.691423 7.744071 14.593520 
A 13.268289 3.139797 2.497195 
A 16.221239 17.809446 6.916158 
A 12.051760 13.922982 3.562524 
A 15.346565 9.722063 18.710903 
A 4.366695 15.466183 15.761209 