100
timestep 0  
A 15.793993 11.785025 10.918094 
A 4.528023 18.408056 4.204290 
A 16.530746 17.476604 9.276892 
A 184.006622 5.390026 10.161097 
A 193.188345 14.228613 0.293862 
A 208.361177 16.936604 13.503070 
A 67.112913 2.429755 16.890338 
A 175.102166 0.190615 3.669941 
A 7.745709 14.739601 8.470948 
A 123.530946 3.346841 7.157741 
A 5.818024 9.412161 10.184680 
A 153.076618 7.156395 17.531595 
A 148.653662 9.281729 18.022407 
A 28.548230 19.100121 15.731900 
A 66.474041 6.291641 3.602145 
A 13.810958 1.887561 4.231464 
A 200.411004 9.795265 9.019438 
A 106.605540 3.573174 14.334378 
A 196.799361 11.532652 9.282504 
A 121.513651 2.520620 7.253127 
A 32.289859 15.968906 9.411160 
A 147.077278 0.762912 19.794570 
A 30.372904 7.036458 1.745006 
A 91.408066 3.214868 12.287750 
A 2.290042 17.853013 2.545176 
A 156.990508 7.224727 5.980064 
A 76.231175 14.305418 11.165973 
A 71.540114 7.163495 5.055313 
A 61.320566 12.250870 0.376109 
A 13.841006 7.799547 6.988804 
A 9.161695 18.237170 12.119614 
A 157.798882 2.346165 12.000237 
A 87.805723 19.161968 15.189724 
A 150.683801 11.150016 18.316534 
A 65.937697 6.807072 6.465960 
A 147.338423 19.662955 17.748825 
A 99.911399 15.534432 7.204530 
A 71.803580 8.969674 5.114334 
A 172.546743 15.736770 7.893299 
A 29.478533 0.519045 3.584231 
A 1.934150 16.328316 3.048195 
A 148.600103 7.448743 11.017315 
A 88.111133 5.801721 9.531484 
A 172.186266 4.961825 13.390687 
A 190.061626 16.886030 3.499106 
A 104.146431 6.278393 0.957436 
A 127.904579 6.569650 16.105503 
A 57.133297 14.483420 2.836476 
A 139.135133 5.834006 12.136795 
A 34.324157 4.191735 10.496993 
A 32.505113 4.857831 5.559102 
A 130.165996 17.818969 13.309206 
A 44.669812 11.411670 15.937612 
A 37.902141 11.025711 9.120480 
A 86.971250 4.163299 12.569893 
A 24.028783 13.795285 17.354031 
A 101.144245 19.211908 14.544818 
A 162.313633 0.475786 16.533937 
A 64.582246 15.800752 3.243792 
A 202.578844 2.057645 2.841637 
A 213.372874 14.354587 17.536963 
A 41.136053 12.149315 13.530907 
A 153.440788 3.575248 9.194748 
A 177.513095 3.870880 17.873120 
A 148.840601 14.907736 14.323540 
A 173.080720 11.605712 17.202118 
A 175.936878 15.555558 2.258258 
A 160.020594 16.920506 2.940163 
A 168.513056 12.629853 9.947655 
A 112.632504 12.227006 19.297068 
A 63.954111 16.068273 19.467105 
A 39.927874 6.161128 10.086224 
A 210.748360 4.334760 14.304952 
A 36.596172 15.624309 17.762356 
A 131.012542 15.254260 18.350660 
A 215.023879 16.780648 10.933699 
A 218.794092 17.482026 0.410579 
A 6.706046 6.228006 14.103272 
A 150.618474 11.336259 8.504695 
A 202.461768 3.176584 8.848279 
A 143.356179 15.209318 3.005223 
A 96.635980 10.992193 5.789221 
A 213.818774 15.806961 9.011059 
A 128.197239 13.727066 10.800482 
A 40.788650 1.348829 9.771194 
A 48.960249 6.808928 17.652946 
A 143.713450 1.087304 14.313794 
A 131.312291 17.232302 13.414864 
A 81.215594 10.043758 5.447598 
A 195.520311 17.261169 8.462409 
A 84.702454 17.650068 4.696645 
A 181.615861 12.525777 0.737221 
A 115.144684 10.608921 4.127892 
A 192.226733 4.972103 6.126796 
A 143.681439 12.176409 8.906793 
A 181.230179 3.238208 4.563691 
A 21.431062 4.714726 0.399529 
A 163.749276 14.007987 12.229136 
A 165.912829 19.719539 6.291904 
A 88.245543 11.167529 12.661430 
100
timestep 1  
A 15.793993 11.785025 10.918094 
A 4.528023 18.408056 4.204290 
A 16.530746 17.476604 9.276892 
A 184.006622 5.390026 10.161097 
A 193.188345 14.228613 0.293862 
A 208.361177 16.936604 13.503070 
A 67.112913 2.429755 16.890338 
A 175.102166 0.190615 3.669941 
A 7.745709 14.739601 8.470948 
A 123.532334 3.347409 7.157676 
A 5.818024 9.412161 10.184680 
A 153.076618 7.156395 17.531595 
A 148.653662 9.281729 18.022407 
A 28.548230 19.100121 15.731900 
A 66.474041 6.291641 3.602145 
A 13.810958 1.887561 4.231464 
A 200.411004 9.795265 9.019438 
A 106.605540 3.573174 14.334378 
A 196.799361 11.532652 9.282504 
A 121.512263 2.520051 7.253193 
A 32.289859 15.968906 9.411160 
A 147.077173 0.763351 19.795387 
A 30.372904 7.036458 1.745006 
A 91.408066 3.214868 12.287750 
A 2.292214 17.862319 2.542106 
A 156.990508 7.224727 5.980064 
A 76.231175 14.305418 11.165973 
A 71.539386 7.158502 5.055150 
A 61.320566 12.250870 0.376109 
A 13.841006 7.799547 6.988804 
A 9.161695 18.237170 12.119614 
A 157.798882 2.346165 12.000237 
A 87.805723 19.161968 15.189724 
A 150.683801 11.150016 18.316534 
A 65.937697 6.807072 6.465960 
A 147.338528 19.662516 17.748008 
A 99.911399 15.534432 7.204530 
A 71.804308 8.974667 5.114497 
A 172.546743 15.736770 7.893299 
A 29.478533 0.519045 3.584231 
A 1.931978 16.319010 3.051265 
A 148.600103 7.448743 11.017315 
A 88.111133 5.801721 9.531484 
A 172.186266 4.961825 13.390687 
A 190.061626 16.886030 3.499106 
A 104.146431 6.278393 0.957436 
A 127.904579 6.569650 16.105503 
A 57.133297 14.483420 2.836476 
A 139.135133 5.834006 12.136795 
A 34.324157 4.191735 10.496993 
A 32.505113 4.857831 5.559102 
A 130.135324 17.834667 13.306379 
A 44.669812 11.411670 15.937612 
A 37.902141 11.025711 9.120480 
A 86.971250 4.163299 12.569893 
A 24.028783 13.795285 17.354031 
A 101.144245 19.211908 14.544818 
A 162.313633 0.475786 16.533937 
A 64.582246 15.800752 3.243792 
A 202.578844 2.057645 2.841637 
A 213.372874 14.354587 17.536963 
A 41.136053 12.149315 13.530907 
A 153.440788 3.575248 9.194748 
A 177.513095 3.870880 17.873120 
A 148.840601 14.907736 14.323540 
A 173.080720 11.605712 17.202118 
A 175.936878 15.555558 2.258258 
A 160.020594 16.920506 2.940163 
A 168.513056 12.629853 9.947655 
A 112.632504 12.227006 19.297068 
A 63.954111 16.068273 19.467105 
A 39.927874 6.161128 10.086224 
A 210.748360 4.334760 14.304952 
A 36.596172 15.624309 17.762356 
A 131.012542 15.254260 18.350660 
A 215.024190 16.780899 10.934195 
A 218.794092 17.482026 0.410579 
A 6.706046 6.228006 14.103272 
A 150.618474 11.336259 8.504695 
A 202.461768 3.176584 8.848279 
A 143.356179 15.209318 3.005223 
A 96.635980 10.992193 5.789221 
A 213.818463 15.806710 9.010562 
A 128.197239 13.727066 10.800482 
A 40.788650 1.348829 9.771194 
A 48.960249 6.808928 17.652946 
A 143.713450 1.087304 14.313794 
A 131.342962 17.216605 13.417691 
A 81.215594 10.043758 5.447598 
A 195.520311 17.261169 8.462409 
A 84.702454 17.650068 4.696645 
A 181.615861 12.525777 0.737221 
A 115.144684 10.608921 4.127892 
A 192.226733 4.972103 6.126796 
A 143.681439 12.176409 8.906793 
A 181.230179 3.238208 4.563691 
A 21.431062 4.714726 0.399529 
A 163.749276 14.007987 12.229136 
A 165.912829 19.719539 6.291904 
A 88.245543 11.167529 12.661430 
100
timestep 2  
A 15.793993 11.785025 10.918094 
A 4.528023 18.408056 4.204290 
A 16.530746 17.476604 9.276892 
A 184.006622 5.390026 10.161097 
A 193.188345 14.228613 0.293862 
A 208.361177 16.936604 13.503070 
A 67.112913 2.429755 16.890338 
A 175.102166 0.190615 3.669941 
A 7.745709 14.739601 8.470948 
A 123.534639 3.348353 7.157567 
A 5.818024 9.412161 10.184680 
A 153.076618 7.156395 17.531595 
A 148.653662 9.281729 18.022407 
A 28.548230 19.100121 15.731900 
A 66.474041 6.291641 3.602145 
A 13.810958 1.887561 4.231464 
A 200.411004 9.795265 9.019438 
A 106.605540 3.573174 14.334378 
A 196.799361 11.532652 9.282504 
A 121.509958 2.519108 7.253302 
A 32.289859 15.968906 9.411160 
A 147.077000 0.764082 19.796746 
A 30.372904 7.036458 1.745006 
A 91.408066 3.214868 12.287750 
A 2.295715 17.877317 2.537158 
A 156.990508 7.224727 5.980064 
A 76.231175 14.305418 11.165973 
A 71.538192 7.150315 5.054883 
A 61.320566 12.250870 0.376109 
A 13.841006 7.799547 6.988804 
A 9.161695 18.237170 12.119614 
A 157.798882 2.346165 12.000237 
A 87.805723 19.161968 15.189724 
A 150.683801 11.150016 18.316534 
A 65.937697 6.807072 6.465960 
A 147.338701 19.661785 17.746649 
A 99.911399 15.534432 7.204530 
A 71.805502 8.982854 5.114764 
A 172.546743 15.736770 7.893299 
A 29.478533 0.519045 3.584231 
A 1.928477 16.304011 3.056213 
A 148.600103 7.448743 11.017315 
A 88.111133 5.801721 9.531484 
A 172.186266 4.961825 13.390687 
A 190.061626 16.886030 3.499106 
A 104.146431 6.278393 0.957436 
A 127.904579 6.569650 16.105503 
A 57.133297 14.483420 2.836476 
A 139.135133 5.834006 12.136795 
A 34.324157 4.191735 10.496993 
A 32.505113 4.857831 5.559102 
A 130.087792 17.858994 13.301998 
A 44.669812 11.411670 15.937612 
A 37.902141 11.025711 9.120480 
A 86.971250 4.163299 12.569893 
A 24.028783 13.795285 17.354031 
A 101.144245 19.211908 14.544818 
A 162.313633 0.475786 16.533937 
A 64.582246 15.800752 3.243792 
A 202.578844 2.057645 2.841637 
A 213.372874 14.354587 17.536963 
A 41.136053 12.149315 13.530907 
A 153.440788 3.575248 9.194748 
A 177.513095 3.870880 17.873120 
A 148.840601 14.907736 14.323540 
A 173.080720 11.605712 17.202118 
A 175.936878 15.555558 2.258258 
A 160.020594 16.920506 2.940163 
A 168.513056 12.629853 9.947655 
A 112.632504 12.227006 19.297068 
A 63.954111 16.068273 19.467105 
A 39.927874 6.161128 10.086224 
A 210.748360 4.334760 14.304952 
A 36.596172 15.624309 17.762356 
A 131.012542 15.254260 18.350660 
A 215.024708 16.781318 10.935022 
A 218.794092 17.482026 0.410579 
A 6.706046 6.228006 14.103272 
A 150.618474 11.336259 8.504695 
A 202.461768 3.176584 8.848279 
A 143.356179 15.209318 3.005223 
A 96.635980 10.992193 5.789221 
A 213.817944 15.806291 9.009736 
A 128.197239 13.727066 10.800482 
A 40.788650 1.348829 9.771194 
A 48.960249 6.808928 17.652946 
A 143.713450 1.087304 14.313794 
A 131.390495 17.192278 13.422072 
A 81.215594 10.043758 5.447598 
A 195.520311 17.261169 8.462409 
A 84.702454 17.650068 4.696645 
A 181.615861 12.525777 0.737221 
A 115.144684 10.608921 4.127892 
A 192.226733 4.972103 6.126796 
A 143.681439 12.176409 8.906793 
A 181.230179 3.238208 4.563691 
A 21.431062 4.714726 0.399529 
A 163.749276 14.007987 12.229136 
A 165.912829 19.719539 6.291904 
A 88.245543 11.167529 12.661430 
100
timestep 3  
A 15.793993 11.785025 10.918094 
A 4.528023 18.408056 4.204290 
A 16.530746 17.476604 9.276892 
A 184.006622 5.390026 10.161097 
A 193.188345 14.228613 0.293862 
A 208.361177 16.936604 13.503070 
A 67.112913 2.429755 16.890338 
A 175.102166 0.190615 3.669941 
A 7.745709 14.739601 8.470948 
A 123.537845 3.349666 7.157415 
A 5.818024 9.412161 10.184680 
A 153.076618 7.156395 17.531595 
A 148.653662 9.281729 18.022407 
A 28.548230 19.100121 15.731900 
A 66.474041 6.291641 3.602145 
A 13.810958 1.887561 4.231464 
A 200.411004 9.795265 9.019438 
A 106.605540 3.573174 14.334378 
A 196.799361 11.532652 9.282504 
A 121.506752 2.517794 7.253453 
A 32.289859 15.968906 9.411160 
A 147.076758 0.765100 19.798641 
A 30.372904 7.036458 1.745006 
A 91.408066 3.214868 12.287750 
A 2.300390 17.897348 2.530549 
A 156.990508 7.224727 5.980064 
A 76.231175 14.305418 11.165973 
A 71.536559 7.139118 5.054517 
A 61.320566 12.250870 0.376109 
A 13.841006 7.799547 6.988804 
A 9.161695 18.237170 12.119614 
A 157.798882 2.346165 12.000237 
A 87.805723 19.161968 15.189724 
A 150.683801 11.150016 18.316534 
A 65.937697 6.807072 6.465960 
A 147.338943 19.660766 17.744754 
A 99.911399 15.534432 7.204530 
A 71.807135 8.994051 5.115130 
A 172.546743 15.736770 7.893299 
A 29.478533 0.519045 3.584231 
A 1.923802 16.283981 3.062821 
A 148.600103 7.448743 11.017315 
A 88.111133 5.801721 9.531484 
A 172.186266 4.961825 13.390687 
A 190.061626 16.886030 3.499106 
A 104.146431 6.278393 0.957436 
A 127.904579 6.569650 16.105503 
A 57.133297 14.483420 2.836476 
A 139.135133 5.834006 12.136795 
A 34.324157 4.191735 10.496993 
A 32.505113 4.857831 5.559102 
A 130.028676 17.889248 13.296549 
A 44.669812 11.411670 15.937612 
A 37.902141 11.025711 9.120480 
A 86.971250 4.163299 12.569893 
A 24.028783 13.795285 17.354031 
A 101.144245 19.211908 14.544818 
A 162.313633 0.475786 16.533937 
A 64.582246 15.800752 3.243792 
A 202.578844 2.057645 2.841637 
A 213.372874 14.354587 17.536963 
A 41.136053 12.149315 13.530907 
A 153.440788 3.575248 9.194748 
A 177.513095 3.870880 17.873120 
A 148.840601 14.907736 14.323540 
A 173.080720 11.605712 17.202118 
A 175.936878 15.555558 2.258258 
A 160.020594 16.920506 2.940163 
A 168.513056 12.629853 9.947655 
A 112.632504 12.227006 19.297068 
A 63.954111 16.068273 19.467105 
A 39.927874 6.161128 10.086224 
A 210.748360 4.334760 14.304952 
A 36.596172 15.624309 17.762356 
A 131.012542 15.254260 18.350660 
A 215.025432 16.781902 10.936176 
A 218.794092 17.482026 0.410579 
A 6.706046 6.228006 14.103272 
A 150.618474 11.336259 8.504695 
A 202.461768 3.176584 8.848279 
A 143.356179 15.209318 3.005223 
A 96.635980 10.992193 5.789221 
A 213.817221 15.805707 9.008581 
A 128.197239 13.727066 10.800482 
A 40.788650 1.348829 9.771194 
A 48.960249 6.808928 17.652946 
A 143.713450 1.087304 14.313794 
A 131.449610 17.162023 13.427521 
A 81.215594 10.043758 5.447598 
A 195.520311 17.261169 8.462409 
A 84.702454 17.650068 4.696645 
A 181.615861 12.525777 0.737221 
A 115.144684 10.608921 4.127892 
A 192.226733 4.972103 6.126796 
A 143.681439 12.176409 8.906793 
A 181.230179 3.238208 4.563691 
A 21.431062 4.714726 0.399529 
A 163.749276 14.007987 12.229136 
A 165.912829 19.719539 6.291904 
A 88.245543 11.167529 12.661430 
100
timestep 4  
A 15.793993 11.785025 10.918094 
A 4.528023 18.408056 4.204290 
A 16.530746 17.476604 9.276892 
A 184.006622 5.390026 10.161097 
A 193.188345 14.228613 0.293862 
A 208.361177 16.936604 13.503070 
A 67.112913 2.429755 16.890338 
A 175.102166 0.190615 3.669941 
A 7.745709 14.739601 8.470948 
A 123.541933 3.351341 7.157222 
A 5.818024 9.412161 10.184680 
A 153.076618 7.156395 17.531595 
A 148.653662 9.281729 18.022407 
A 28.548230 19.100121 15.731900 
A 66.474041 6.291641 3.602145 
A 13.810958 1.887561 4.231464 
A 200.411004 9.795265 9.019438 
A 106.605540 3.573174 14.334378 
A 196.799361 11.532652 9.282504 
A 121.502664 2.516120 7.253646 
A 32.289859 15.968906 9.411160 
A 147.076449 0.766404 19.801066 
A 30.372904 7.036458 1.745006 
A 91.408066 3.214868 12.287750 
A 2.306063 17.921652 2.522531 
A 156.990508 7.224727 5.980064 
A 76.231175 14.305418 11.165973 
A 71.534521 7.125148 5.054060 
A 61.320566 12.250870 0.376109 
A 13.841006 7.799547 6.988804 
A 9.161695 18.237170 12.119614 
A 157.798882 2.346165 12.000237 
A 87.805723 19.161968 15.189724 
A 150.683801 11.150016 18.316534 
A 65.937697 6.807072 6.465960 
A 147.339252 19.659463 17.742330 
A 99.911399 15.534432 7.204530 
A 71.809173 9.008021 5.115587 
A 172.546743 15.736770 7.893299 
A 29.478533 0.519045 3.584231 
A 1.918129 16.259677 3.070840 
A 148.600103 7.448743 11.017315 
A 88.111133 5.801721 9.531484 
A 172.186266 4.961825 13.390687 
A 190.061626 16.886030 3.499106 
A 104.146431 6.278393 0.957436 
A 127.904579 6.569650 16.105503 
A 57.133297 14.483420 2.836476 
A 139.135133 5.834006 12.136795 
A 34.324157 4.191735 10.496993 
A 32.505113 4.857831 5.559102 
A 129.962617 17.923057 13.290461 
A 44.669812 11.411670 15.937612 
A 37.902141 11.025711 9.120480 
A 86.971250 4.163299 12.569893 
A 24.028783 13.795285 17.354031 
A 101.144245 19.211908 14.544818 
A 162.313633 0.475786 16.533937 
A 64.582246 15.800752 3.243792 
A 202.578844 2.057645 2.841637 
A 213.372874 14.354587 17.536963 
A 41.136053 12.149315 13.530907 
A 153.440788 3.575248 9.194748 
A 177.513095 3.870880 17.873120 
A 148.840601 14.907736 14.323540 
A 173.080720 11.605712 17.202118 
A 175.936878 15.555558 2.258258 
A 160.020594 16.920506 2.940163 
A 168.513056 12.629853 9.947655 
A 112.632504 12.227006 19.297068 
A 63.954111 16.068273 19.467105 
A 39.927874 6.161128 10.086224 
A 210.748360 4.334760 14.304952 
A 36.596172 15.624309 17.762356 
A 131.012542 15.254260 18.350660 
A 215.026359 16.782652 10.937656 
A 218.794092 17.482026 0.410579 
A 6.706046 6.228006 14.103272 
A 150.618474 11.336259 8.504695 
A 202.461768 3.176584 8.848279 
A 143.356179 15.209318 3.005223 
A 96.635980 10.992193 5.789221 
A 213.816294 15.804957 9.007102 
A 128.197239 13.727066 10.800482 
A 40.788650 1.348829 9.771194 
A 48.960249 6.808928 17.652946 
A 143.713450 1.087304 14.313794 
A 131.515670 17.128215 13.433609 
A 81.215594 10.043758 5.447598 
A 195.520311 17.261169 8.462409 
A 84.702454 17.650068 4.696645 
A 181.615861 12.525777 0.737221 
A 115.144684 10.608921 4.127892 
A 192.226733 4.972103 6.126796 
A 143.681439 12.176409 8.906793 
A 181.230179 3.238208 4.563691 
A 21.431062 4.714726 0.399529 
A 163.749276 14.007987 12.229136 
A 165.912829 19.719539 6.291904 
A 88.245543 11.167529 12.661430 
100
timestep 5  
A 15.793993 11.785025 10.918094 
A 4.528023 18.408056 4.204290 
A 16.530746 17.476604 9.276892 
A 184.006622 5.390026 10.161097 
A 193.188345 14.228613 0.293862 
A 208.361177 16.936604 13.503070 
A 67.112913 2.429755 16.890338 
A 175.102166 0.190615 3.669941 
A 7.745709 14.739601 8.470948 
A 123.546880 3.353367 7.156988 
A 5.818024 9.412161 10.184680 
A 153.076618 7.156395 17.531595 
A 148.653662 9.281729 18.022407 
A 28.548230 19.100121 15.731900 
A 66.474041 6.291641 3.602145 
A 13.810958 1.887561 4.231464 
A 200.411004 9.795265 9.019438 
A 106.605540 3.573174 14.334378 
A 196.799361 11.532652 9.282504 
A 121.497717 2.514094 7.253880 
A 32.289859 15.968906 9.411160 
A 147.076072 0.767988 19.804011 
A 30.372904 7.036458 1.745006 
A 91.408066 3.214868 12.287750 
A 2.312557 17.949472 2.513353 
A 156.990508 7.224727 5.980064 
A 76.231175 14.305418 11.165973 
A 71.532117 7.108668 5.053522 
A 61.320566 12.250870 0.376109 
A 13.841006 7.799547 6.988804 
A 9.161695 18.237170 12.119614 
A 157.798882 2.346165 12.000237 
A 87.805723 19.161968 15.189724 
A 150.683801 11.150016 18.316534 
A 65.937697 6.807072 6.465960 
A 147.339628 19.657879 17.739384 
A 99.911399 15.534432 7.204530 
A 71.811577 9.024500 5.116125 
A 172.546743 15.736770 7.893299 
A 29.478533 0.519045 3.584231 
A 1.911635 16.231857 3.080018 
A 148.600103 7.448743 11.017315 
A 88.111133 5.801721 9.531484 
A 172.186266 4.961825 13.390687 
A 190.061626 16.886030 3.499106 
A 104.146431 6.278393 0.957436 
A 127.904579 6.569650 16.105503 
A 57.133297 14.483420 2.836476 
A 139.135133 5.834006 12.136795 
A 34.324157 4.191735 10.496993 
A 32.505113 4.857831 5.559102 
A 129.892624 17.958879 13.284009 
A 44.669812 11.411670 15.937612 
A 37.902141 11.025711 9.120480 
A 86.971250 4.163299 12.569893 
A 24.028783 13.795285 17.354031 
A 101.144245 19.211908 14.544818 
A 162.313633 0.475786 16.533937 
A 64.582246 15.800752 3.243792 
A 202.578844 2.057645 2.841637 
A 213.372874 14.354587 17.536963 
A 41.136053 12.149315 13.530907 
A 153.440788 3.575248 9.194748 
A 177.513095 3.870880 17.873120 
A 148.840601 14.907736 14.323540 
A 173.080720 11.605712 17.202118 
A 175.936878 15.555558 2.258258 
A 160.020594 16.920506 2.940163 
A 168.513056 12.629853 9.947655 
A 112.632504 12.227006 19.297068 
A 63.954111 16.068273 19.467105 
A 39.927874 6.161128 10.086224 
A 210.748360 4.334760 14.304952 
A 36.596172 15.624309 17.762356 
A 131.012542 15.254260 18.350660 
A 215.027488 16.783564 10.939457 
A 218.794092 17.482026 0.410579 
A 6.706046 6.228006 14.103272 
A 150.618474 11.336259 8.504695 
A 202.461768 3.176584 8.848279 
A 143.356179 15.209318 3.005223 
A 96.635980 10.992193 5.789221 
A 213.815165 15.804045 9.005301 
A 128.197239 13.727066 10.800482 
A 40.788650 1.348829 9.771194 
A 48.960249 6.808928 17.652946 
A 143.713450 1.087304 14.313794 
A 131.585663 17.092392 13.440061 
A 81.215594 10.043758 5.447598 
A 195.520311 17.261169 8.462409 
A 84.702454 17.650068 4.696645 
A 181.615861 12.525777 0.737221 
A 115.144684 10.608921 4.127892 
A 192.226733 4.972103 6.126796 
A 143.681439 12.176409 8.906793 
A 181.230179 3.238208 4.563691 
A 21.431062 4.714726 0.399529 
A 163.749276 14.007987 12.229136 
A 165.912829 19.719539 6.291904 
A 88.245543 11.167529 12.661430 
100
timestep 6  
A 15.793993 11.785025 10.918094 
A 4.528023 18.408056 4.204290 
A 16.530746 17.476604 9.276892 
A 184.006622 5.390026 10.161097 
A 193.188345 14.228613 0.293862 
A 208.361177 16.936604 13.503070 
A 67.112913 2.429755 16.890338 
A 175.102166 0.190615 3.669941 
A 7.745709 14.739601 8.470948 
A 123.552656 3.355732 7.156715 
A 5.818024 9.412161 10.184680 
A 153.076618 7.156395 17.531595 
A 148.653662 9.281729 18.022407 
A 28.548230 19.100121 15.731900 
A 66.474041 6.291641 3.602145 
A 13.810958 1.887561 4.231464 
A 200.411004 9.795265 9.019438 
A 106.605540 3.573174 14.334378 
A 196.799361 11.532652 9.282504 
A 121.491941 2.511728 7.254153 
A 32.289859 15.968906 9.411160 
A 147.075631 0.769846 19.807468 
A 30.372904 7.036458 1.745006 
A 91.408066 3.214868 12.287750 
A 2.319710 17.980116 2.503243 
A 156.990508 7.224727 5.980064 
A 76.231175 14.305418 11.165973 
A 71.529388 7.089958 5.052910 
A 61.320566 12.250870 0.376109 
A 13.841006 7.799547 6.988804 
A 9.161695 18.237170 12.119614 
A 157.798882 2.346165 12.000237 
A 87.805723 19.161968 15.189724 
A 150.683801 11.150016 18.316534 
A 65.937697 6.807072 6.465960 
A 147.340070 19.656020 17.735928 
A 99.911399 15.534432 7.204530 
A 71.814306 9.043211 5.116737 
A 172.546743 15.736770 7.893299 
A 29.478533 0.519045 3.584231 
A 1.904482 16.201213 3.090128 
A 148.600103 7.448743 11.017315 
A 88.111133 5.801721 9.531484 
A 172.186266 4.961825 13.390687 
A 190.061626 16.886030 3.499106 
A 104.146431 6.278393 0.957436 
A 127.904579 6.569650 16.105503 
A 57.133297 14.483420 2.836476 
A 139.135133 5.834006 12.136795 
A 34.324157 4.191735 10.496993 
A 32.505113 4.857831 5.559102 
A 129.820416 17.995835 13.277353 
A 44.669812 11.411670 15.937612 
A 37.902141 11.025711 9.120480 
A 86.971250 4.163299 12.569893 
A 24.028783 13.795285 17.354031 
A 101.144245 19.211908 14.544818 
A 162.313633 0.475786 16.533937 
A 64.582246 15.800752 3.243792 
A 202.578844 2.057645 2.841637 
A 213.372874 14.354587 17.536963 
A 41.136053 12.149315 13.530907 
A 153.440788 3.575248 9.194748 
A 177.513095 3.870880 17.873120 
A 148.840601 14.907736 14.323540 
A 173.080720 11.605712 17.202118 
A 175.936878 15.555558 2.258258 
A 160.020594 16.920506 2.940163 
A 168.513056 12.629853 9.947655 
A 112.632504 12.227006 19.297068 
A 63.954111 16.068273 19.467105 
A 39.927874 6.161128 10.086224 
A 210.748360 4.334760 14.304952 
A 36.596172 15.624309 17.762356 
A 131.012542 15.254260 18.350660 
A 215.028816 16.784637 10.941576 
A 218.794092 17.482026 0.410579 
A 6.706046 6.228006 14.103272 
A 150.618474 11.336259 8.504695 
A 202.461768 3.176584 8.848279 
A 143.356179 15.209318 3.005223 
A 96.635980 10.992193 5.789221 
A 213.813837 15.802972 9.003182 
A 128.197239 13.727066 10.800482 
A 40.788650 1.348829 9.771194 
A 48.960249 6.808928 17.652946 
A 143.713450 1.087304 14.313794 
A 131.657871 17.055437 13.446717 
A 81.215594 10.043758 5.447598 
A 195.520311 17.261169 8.462409 
A 84.702454 17.650068 4.696645 
A 181.615861 12.525777 0.737221 
A 115.144684 10.608921 4.127892 
A 192.226733 4.972103 6.126796 
A 143.681439 12.176409 8.906793 
A 181.230179 3.238208 4.563691 
A 21.431062 4.714726 0.399529 
A 163.749276 14.007987 12.229136 
A 165.912829 19.719539 6.291904 
A 88.245543 11.167529 12.661430 
100
timestep 7  
A 15.793993 11.785025 10.918094 
A 4.528023 18.408056 4.204290 
A 16.530746 17.476604 9.276892 
A 184.006622 5.390026 10.161097 
A 193.188345 14.228613 0.293862 
A 208.361177 16.936604 13.503070 
A 67.112913 2.429755 16.890338 
A 175.102166 0.190615 3.669941 
A 7.745709 14.739601 8.470948 
A 123.559231 3.358425 7.156404 
A 5.818024 9.412161 10.184680 
A 153.076618 7.156395 17.531595 
A 148.653662 9.281729 18.022407 
A 28.548230 19.100121 15.731900 
A 66.474041 6.291641 3.602145 
A 13.810958 1.887561 4.231464 
A 200.411004 9.795265 9.019438 
A 106.605540 3.573174 14.334378 
A 196.799361 11.532652 9.282504 
A 121.485366 2.509035 7.254464 
A 32.289859 15.968906 9.411160 
A 147.075126 0.771973 19.811423 
A 30.372904 7.036458 1.745006 
A 91.408066 3.214868 12.287750 
A 2.327383 18.012992 2.492397 
A 156.990508 7.224727 5.980064 
A 76.231175 14.305418 11.165973 
A 71.526373 7.069290 5.052235 
A 61.320566 12.250870 0.376109 
A 13.841006 7.799547 6.988804 
A 9.161695 18.237170 12.119614 
A 157.798882 2.346165 12.000237 
A 87.805723 19.161968 15.189724 
A 150.683801 11.150016 18.316534 
A 65.937697 6.807072 6.465960 
A 147.340575 19.653894 17.731972 
A 99.911399 15.534432 7.204530 
A 71.817321 9.063878 5.117412 
A 172.546743 15.736770 7.893299 
A 29.478533 0.519045 3.584231 
A 1.896809 16.168337 3.100974 
A 148.600103 7.448743 11.017315 
A 88.111133 5.801721 9.531484 
A 172.186266 4.961825 13.390687 
A 190.061626 16.886030 3.499106 
A 104.146431 6.278393 0.957436 
A 127.904579 6.569650 16.105503 
A 57.133297 14.483420 2.836476 
A 139.135133 5.834006 12.136795 
A 34.324157 4.191735 10.496993 
A 32.505113 4.857831 5.559102 
A 129.746938 18.033441 13.270581 
A 44.669812 11.411670 15.937612 
A 37.902141 11.025711 9.120480 
A 86.971250 4.163299 12.569893 
A 24.028783 13.795285 17.354031 
A 101.144245 19.211908 14.544818 
A 162.313633 0.475786 16.533937 
A 64.582246 15.800752 3.243792 
A 202.578844 2.057645 2.841637 
A 213.372874 14.354587 17.536963 
A 41.136053 12.149315 13.530907 
A 153.440788 3.575248 9.194748 
A 177.513095 3.870880 17.873120 
A 148.840601 14.907736 14.323540 
A 173.080720 11.605712 17.202118 
A 175.936878 15.555558 2.258258 
A 160.020594 16.920506 2.940163 
A 168.513056 12.629853 9.947655 
A 112.632504 12.227006 19.297068 
A 63.954111 16.068273 19.467105 
A 39.927874 6.161128 10.086224 
A 210.748360 4.334760 14.304952 
A 36.596172 15.624309 17.762356 
A 131.012542 15.254260 18.350660 
A 215.030340 16.785868 10.944007 
A 218.794092 17.482026 0.410579 
A 6.706046 6.228006 14.103272 
A 150.618474 11.336259 8.504695 
A 202.461768 3.176584 8.848279 
A 143.356179 15.209318 3.005223 
A 96.635980 10.992193 5.789221 
A 213.812313 15.801741 9.000751 
A 128.197239 13.727066 10.800482 
A 40.788650 1.348829 9.771194 
A 48.960249 6.808928 17.652946 
A 143.713450 1.087304 14.313794 
A 131.731349 17.017831 13.453489 
A 81.215594 10.043758 5.447598 
A 195.520311 17.261169 8.462409 
A 84.702454 17.650068 4.696645 
A 181.615861 12.525777 0.737221 
A 115.144684 10.608921 4.127892 
A 192.226733 4.972103 6.126796 
A 143.681439 12.176409 8.906793 
A 181.230179 3.238208 4.563691 
A 21.431062 4.714726 0.399529 
A 163.749276 14.007987 12.229136 
A 165.912829 19.719539 6.291904 
A 88.245543 11.167529 12.661430 
100
timestep 8  
A 15.793993 11.785025 10.918094 
A 4.528023 18.408056 4.204290 
A 16.530746 17.476604 9.276892 
A 184.006622 5.390026 10.161097 
A 193.188345 14.228613 0.293862 
A 208.361177 16.936604 13.503070 
A 67.112913 2.429755 16.890338 
A 175.102166 0.190615 3.669941 
A 7.745709 14.739601 8.470948 
A 123.566570 3.361431 7.156057 
A 5.818024 9.412161 10.184680 
A 153.076618 7.156395 17.531595 
A 148.653662 9.281729 18.022407 
A 28.548230 19.100121 15.731900 
A 66.474041 6.291641 3.602145 
A 13.810958 1.887561 4.231464 
A 200.411004 9.795265 9.019438 
A 106.605540 3.573174 14.334378 
A 196.799361 11.532652 9.282504 
A 121.478027 2.506029 7.254811 
A 32.289859 15.968906 9.411160 
A 147.074559 0.774362 19.815865 
A 30.372904 7.036458 1.745006 
A 91.408066 3.214868 12.287750 
A 2.335464 18.047612 2.480975 
A 156.990508 7.224727 5.980064 
A 76.231175 14.305418 11.165973 
A 71.523111 7.046926 5.051504 
A 61.320566 12.250870 0.376109 
A 13.841006 7.799547 6.988804 
A 9.161695 18.237170 12.119614 
A 157.798882 2.346165 12.000237 
A 87.805723 19.161968 15.189724 
A 150.683801 11.150016 18.316534 
A 65.937697 6.807072 6.465960 
A 147.341142 19.651505 17.727530 
A 99.911399 15.534432 7.204530 
A 71.820583 9.086243 5.118143 
A 172.546743 15.736770 7.893299 
A 29.478533 0.519045 3.584231 
A 1.888728 16.133717 3.112396 
A 148.600103 7.448743 11.017315 
A 88.111133 5.801721 9.531484 
A 172.186266 4.961825 13.390687 
A 190.061626 16.886030 3.499106 
A 104.146431 6.278393 0.957436 
A 127.904579 6.569650 16.105503 
A 57.133297 14.483420 2.836476 
A 139.135133 5.834006 12.136795 
A 34.324157 4.191735 10.496993 
A 32.505113 4.857831 5.559102 
A 129.672711 18.071429 13.263739 
A 44.669812 11.411670 15.937612 
A 37.902141 11.025711 9.120480 
A 86.971250 4.163299 12.569893 
A 24.028783 13.795285 17.354031 
A 101.144245 19.211908 14.544818 
A 162.313633 0.475786 16.533937 
A 64.582246 15.800752 3.243792 
A 202.578844 2.057645 2.841637 
A 213.372874 14.354587 17.536963 
A 41.136053 12.149315 13.530907 
A 153.440788 3.575248 9.194748 
A 177.513095 3.870880 17.873120 
A 148.840601 14.907736 14.323540 
A 173.080720 11.605712 17.202118 
A 175.936878 15.555558 2.258258 
A 160.020594 16.920506 2.940163 
A 168.513056 12.629853 9.947655 
A 112.632504 12.227006 19.297068 
A 63.954111 16.068273 19.467105 
A 39.927874 6.161128 10.086224 
A 210.748360 4.334760 14.304952 
A 36.596172 15.624309 17.762356 
A 131.012542 15.254260 18.350660 
A 215.032057 16.787255 10.946746 
A 218.794092 17.482026 0.410579 
A 6.706046 6.228006 14.103272 
A 150.618474 11.336259 8.504695 
A 202.461768 3.176584 8.848279 
A 143.356179 15.209318 3.005223 
A 96.635980 10.992193 5.789221 
A 213.810596 15.800354 8.998012 
A 128.197239 13.727066 10.800482 
A 40.788650 1.348829 9.771194 
A 48.960249 6.808928 17.652946 
A 143.713450 1.087304 14.313794 
A 131.805575 16.979843 13.460331 
A 81.215594 10.043758 5.447598 
A 195.520311 17.261169 8.462409 
A 84.702454 17.650068 4.696645 
A 181.615861 12.525777 0.737221 
A 115.144684 10.608921 4.127892 
A 192.226733 4.972103 6.126796 
A 143.681439 12.176409 8.906793 
A 181.230179 3.238208 4.563691 
A 21.431062 4.714726 0.399529 
A 163.749276 14.007987 12.229136 
A 165.912829 19.719539 6.291904 
A 88.245543 11.167529 12.661430 
100
timestep 9  
A 15.793993 11.785025 10.918094 
A 4.528023 18.408056 4.204290 
A 16.530746 17.476604 9.276892 
A 184.006622 5.390026 10.161097 
A 193.188345 14.228613 0.293862 
A 208.361177 16.936604 13.503070 
A 67.112913 2.429755 16.890338 
A 175.102166 0.190615 3.669941 
A 7.745709 14.739601 8.470948 
A 123.574637 3.364735 7.155676 
A 5.818024 9.412161 10.184680 
A 153.076618 7.156395 17.531595 
A 148.653662 9.281729 18.022407 
A 28.548230 19.100121 15.731900 
A 66.474041 6.291641 3.602145 
A 13.810958 1.887561 4.231464 
A 200.411004 9.795265 9.019438 
A 106.605540 3.573174 14.334378 