100
timestep 0  
A 16.100653 5.105667 9.881649 
A 7.789709 1.637657 4.106154 
A 12.126153 8.980709 6.504297 
A 15.274570 19.693842 14.408586 
A 5.105439 7.112308 16.566485 
A 12.916415 7.821388 5.800122 
A 19.320850 17.413317 5.051724 
A 16.695632 6.592855 3.720423 
A 5.658234 17.930496 17.844217 
A 7.759901 4.906464 19.544626 
A 13.025183 14.252468 1.227959 
A 18.306352 14.857311 6.824326 
A 16.455012 19.381666 7.657436 
A 18.530749 17.632830 10.853122 
A 2.901094 18.686049 16.420107 
A 12.747277 9.129164 17.074119 
A 17.288436 16.868099 4.859198 
A 9.501827 17.497034 15.839772 
A 14.139757 6.904273 0.112852 
A 16.709320 13.542081 1.762302 
A 19.015458 12.802017 3.505384 
A 14.995536 6.567723 5.767675 
A 17.372714 16.236730 9.810555 
A 15.040233 1.202491 10.268286 
A 19.086699 6.776022 4.342936 
A 10.843635 0.010957 4.730371 
A 17.887860 1.269987 4.668735 
A 7.434430 10.470569 18.845652 
A 18.869822 5.093761 10.849194 
A 2.407173 17.352596 5.082201 
A 16.548236 4.771284 12.045745 
A 5.928009 12.039227 3.290341 
A 0.762670 18.189266 6.991581 
A 7.496982 1.775951 8.404776 
A 19.064936 4.377856 18.631983 
A 7.743922 15.726174 5.665608 
A 5.315156 11.606633 16.881565 
A 10.393303 0.250324 7.187982 
A 8.421144 14.173711 17.568527 
A 14.227228 17.028258 13.928356 
A 13.869178 15.087890 18.272668 
A 18.078384 6.419525 1.196899 
A 2.179057 3.404320 16.408360 
A 15.302518 1.168049 18.025955 
A 16.874921 16.799032 1.331877 
A 4.860047 2.811368 10.659740 
A 18.250667 14.553907 10.868725 
A 2.105122 0.783654 10.879588 
A 13.229908 17.754312 16.434681 
A 2.987589 14.663101 19.898829 
A 2.624235 5.522275 12.879238 
A 1.346564 11.695907 13.111615 
A 6.908372 4.759747 0.463565 
A 4.645818 2.255911 15.088964 
A 0.223269 12.475146 9.776248 
A 9.391924 19.037605 4.456533 
A 6.405703 17.022777 5.946892 
A 5.974349 7.555275 9.025492 
A 3.260474 11.491566 19.100659 
A 17.062070 2.205567 8.972201 
A 15.778567 10.375212 16.190869 
A 19.934556 18.066588 3.012004 
A 9.424032 9.704503 3.579771 
A 5.204590 13.767006 17.872259 
A 17.127091 19.595614 10.904078 
A 12.577605 3.441959 11.885058 
A 13.306661 15.833056 17.755139 
A 14.318667 19.575667 17.389104 
A 1.811404 11.560535 17.567841 
A 10.416100 3.386944 4.360660 
A 9.614984 18.749158 13.913508 
A 9.231062 6.456299 11.019464 
A 4.126584 13.232497 1.411996 
A 8.419184 5.931151 4.345405 
A 14.068775 13.894962 12.623120 
A 16.774289 13.314994 11.689878 
A 7.408293 6.489261 5.515174 
A 12.676297 7.545021 7.658425 
A 0.852249 2.707314 4.662700 
A 13.156084 14.705336 15.788884 
A 9.304640 3.087758 15.940481 
A 11.669265 10.048511 17.548932 
A 1.597353 6.705407 17.767474 
A 17.937056 8.098507 11.603802 
A 5.105708 11.632819 12.792917 
A 10.547735 4.140837 12.159890 
A 10.142247 10.384528 17.311095 
A 18.299828 5.209408 14.520173 
A 0.554678 3.514580 6.695684 
A 7.192226 19.736743 15.437585 
A 19.498148 15.132433 9.303785 
A 18.205199 14.775970 19.733241 
A 16.573340 5.376765 1.719461 
A 17.451263 1.225853 12.081776 
A 10.588445 19.997740 2.007830 
A 5.591994 4.636043 17.972593 
A 5.377853 8.905520 7.555453 
A 12.695729 17.113435 5.499803 
A 15.193831 15.554520 18.444428 
A 5.852923 10.078820 14.733288 
100
timestep 1  
A 16.100398 5.105858 9.880417 
A 7.789709 1.637657 4.106154 
A 12.118357 8.993317 6.508176 
A 15.274570 19.693842 14.408586 
A 5.105439 7.112308 16.566485 
A 12.923076 7.812405 5.790210 
A 19.322293 17.413419 5.053085 
A 16.695078 6.593283 3.721046 
A 5.658234 17.930496 17.844217 
A 7.784032 4.910622 19.518584 
A 13.025183 14.252468 1.227959 
A 18.306352 14.857311 6.824326 
A 16.455012 19.381666 7.657436 
A 18.532293 17.633561 10.854106 
A 2.901094 18.686049 16.420107 
A 12.760240 9.118119 17.068419 
A 17.286635 16.867616 4.859028 
A 9.501776 17.496466 15.840645 
A 14.139757 6.904273 0.112852 
A 16.709320 13.542081 1.762302 
A 19.015458 12.802017 3.505384 
A 14.996147 6.567354 5.767665 
A 17.370392 16.236894 9.808943 
A 15.040233 1.202491 10.268286 
A 19.087300 6.776068 4.343092 
A 10.848753 0.014388 4.731337 
A 17.887860 1.269987 4.668735 
A 7.434430 10.470569 18.845652 
A 18.869822 5.093761 10.849194 
A 2.407173 17.352596 5.082201 
A 16.548491 4.771094 12.046977 
A 5.928009 12.039227 3.290341 
A 0.762670 18.189266 6.991581 
A 7.496982 1.775951 8.404776 
A 19.064936 4.377856 18.631983 
A 7.746826 15.723360 5.664998 
A 5.315194 11.605884 16.881222 
A 10.393303 0.250324 7.187982 
A 8.421144 14.173711 17.568527 
A 14.227228 17.028258 13.928356 
A 13.812139 15.124939 18.238336 
A 18.081398 6.421613 1.195852 
A 2.179057 3.404320 16.408360 
A 15.303987 1.170426 18.026905 
A 16.874921 16.799032 1.331877 
A 4.860047 2.811368 10.659740 
A 18.251454 14.553311 10.870250 
A 2.105122 0.783654 10.879588 
A 13.229427 17.754346 16.433745 
A 2.987186 14.663607 19.898294 
A 2.624235 5.522275 12.879238 
A 1.346564 11.695907 13.111615 
A 6.884241 4.755589 0.489607 
A 4.645818 2.255911 15.088964 
A 0.223269 12.475146 9.776248 
A 9.386807 19.034174 4.455567 
A 6.402799 17.025590 5.947502 
A 5.974940 7.553936 9.026950 
A 3.261771 11.491504 19.102031 
A 17.062070 2.205567 8.972201 
A 15.778567 10.375212 16.190869 
A 19.934914 18.066970 3.010813 
A 9.424032 9.704503 3.579771 
A 5.204552 13.767756 17.872603 
A 17.126273 19.594294 10.902702 
A 12.579095 3.441446 11.884856 
A 13.338655 15.788019 17.787221 
A 14.317649 19.574044 17.388548 
A 1.810107 11.560597 17.566469 
A 10.416100 3.386944 4.360660 
A 9.615035 18.749726 13.912635 
A 9.231062 6.456299 11.019464 
A 4.126986 13.231991 1.412531 
A 8.425376 5.927733 4.338240 
A 14.068775 13.894962 12.623120 
A 16.772889 13.313820 11.690656 
A 7.402101 6.492679 5.522339 
A 12.676820 7.541765 7.664467 
A 0.852436 2.706807 4.661423 
A 13.156009 14.704770 15.787900 
A 9.304640 3.087758 15.940481 
A 11.668611 10.056839 17.556542 
A 1.597353 6.705407 17.767474 
A 17.937056 8.098507 11.603802 
A 5.105708 11.632819 12.792917 
A 10.546245 4.141349 12.160092 
A 10.129938 10.387244 17.309185 
A 18.299828 5.209408 14.520173 
A 0.554491 3.515087 6.696960 
A 7.192226 19.736743 15.437585 
A 19.499973 15.132701 9.302093 
A 18.205199 14.775970 19.733241 
A 16.570279 5.374204 1.719728 
A 17.451646 1.227780 12.083168 
A 10.588445 19.997740 2.007830 
A 5.591994 4.636043 17.972593 
A 5.377262 8.906859 7.553996 
A 12.695729 17.113435 5.499803 
A 15.218982 15.562288 18.448204 
A 5.852923 10.078820 14.733288 
100
timestep 2  
A 16.099975 5.106174 9.878371 
A 7.789709 1.637657 4.106154 
A 12.105938 9.013443 6.514259 
A 15.274570 19.693842 14.408586 
A 5.105439 7.112308 16.566485 
A 12.933610 7.798194 5.774319 
A 19.324686 17.413587 5.055348 
A 16.694157 6.593994 3.722081 
A 5.658234 17.930496 17.844217 
A 7.822110 4.917183 19.477492 
A 13.025183 14.252468 1.227959 
A 18.306352 14.857311 6.824326 
A 16.455012 19.381666 7.657436 
A 18.534859 17.634766 10.855737 
A 2.901094 18.686049 16.420107 
A 12.780899 9.100457 17.059278 
A 17.283646 16.866814 4.858744 
A 9.501691 17.495523 15.842097 
A 14.139757 6.904273 0.112852 
A 16.709320 13.542081 1.762302 
A 19.015458 12.802017 3.505384 
A 14.997180 6.566732 5.767651 
A 17.366539 16.237167 9.806270 
A 15.040233 1.202491 10.268286 
A 19.088301 6.776145 4.343353 
A 10.857111 0.019992 4.732913 
A 17.887860 1.269987 4.668735 
A 7.434430 10.470569 18.845652 
A 18.869822 5.093761 10.849194 
A 2.407173 17.352596 5.082201 
A 16.548914 4.770778 12.049024 
A 5.928009 12.039227 3.290341 
A 0.762670 18.189266 6.991581 
A 7.496982 1.775951 8.404776 
A 19.064936 4.377856 18.631983 
A 7.751604 15.718731 5.663993 
A 5.315258 11.604637 16.880650 
A 10.393303 0.250324 7.187982 
A 8.421144 14.173711 17.568527 
A 14.227228 17.028258 13.928356 
A 13.329064 15.739019 17.807300 
A 18.086360 6.425052 1.194130 
A 2.179057 3.404320 16.408360 
A 15.306416 1.174358 18.028478 
A 16.874921 16.799032 1.331877 
A 4.860047 2.811368 10.659740 
A 18.252767 14.552329 10.872778 
A 2.105122 0.783654 10.879588 
A 13.228620 17.754315 16.432243 
A 2.986516 14.664448 19.897404 
A 2.624235 5.522275 12.879238 
A 1.346564 11.695907 13.111615 
A 6.846163 4.749028 0.530700 
A 4.645818 2.255911 15.088964 
A 0.223269 12.475146 9.776248 
A 9.378449 19.028570 4.453991 
A 6.398022 17.030219 5.948507 
A 5.975920 7.551718 9.029364 
A 3.263921 11.491402 19.104305 
A 17.062070 2.205567 8.972201 
A 15.778567 10.375212 16.190869 
A 19.935509 18.067603 3.008834 
A 9.424032 9.704503 3.579771 
A 5.204488 13.769002 17.873174 
A 17.124914 19.592116 10.900423 
A 12.581567 3.440595 11.884522 
A 13.783645 15.162501 18.214658 
A 14.315971 19.571370 17.387635 
A 1.807957 11.560699 17.564194 
A 10.416100 3.386944 4.360660 
A 9.615121 18.750669 13.911183 
A 9.231062 6.456299 11.019464 
A 4.127656 13.231150 1.413421 
A 8.435356 5.922223 4.326692 
A 14.068775 13.894962 12.623120 
A 16.770562 13.311867 11.691950 
A 7.392122 6.498189 5.533886 
A 12.677671 7.536472 7.674290 
A 0.852746 2.705965 4.659304 
A 13.155875 14.703854 15.786270 
A 9.304640 3.087758 15.940481 
A 11.668075 10.070108 17.568849 
A 1.597353 6.705407 17.767474 
A 17.937056 8.098507 11.603802 
A 5.105708 11.632819 12.792917 
A 10.543773 4.142201 12.160427 
A 10.109815 10.391638 17.306019 
A 18.299828 5.209408 14.520173 
A 0.554181 3.515928 6.699080 
A 7.192226 19.736743 15.437585 
A 19.502999 15.133146 9.299288 
A 18.205199 14.775970 19.733241 
A 16.565237 5.369977 1.720154 
A 17.452281 1.230970 12.085473 
A 10.588445 19.997740 2.007830 
A 5.591994 4.636043 17.972593 
A 5.376282 8.909077 7.551582 
A 12.695729 17.113435 5.499803 
A 15.257255 15.573415 18.454276 
A 5.852923 10.078820 14.733288 
100
timestep 3  
A 16.099386 5.106614 9.875521 
A 7.789709 1.637657 4.106154 
A 12.089604 9.039987 6.522088 
A 15.274570 19.693842 14.408586 
A 5.105439 7.112308 16.566485 
A 12.947320 7.779686 5.753233 
A 19.328012 17.413818 5.058502 
A 16.692871 6.594987 3.723524 
A 5.658234 17.930496 17.844217 
A 7.869775 4.925395 19.426054 
A 13.025183 14.252468 1.227959 
A 18.306352 14.857311 6.824326 
A 16.455012 19.381666 7.657436 
A 18.538434 17.636425 10.858004 
A 2.901094 18.686049 16.420107 
A 12.808072 9.077118 17.047155 
A 17.279494 16.865701 4.858348 
A 9.501572 17.494207 15.844121 
A 14.139757 6.904273 0.112852 
A 16.709320 13.542081 1.762302 
A 19.015458 12.802017 3.505384 
A 14.998653 6.565847 5.767635 
A 17.361180 16.237550 9.802554 
A 15.040233 1.202491 10.268286 
A 19.089700 6.776252 4.343716 
A 10.868474 0.027611 4.735057 
A 17.887860 1.269987 4.668735 
A 7.434430 10.470569 18.845652 
A 18.869822 5.093761 10.849194 
A 2.407173 17.352596 5.082201 
A 16.549503 4.770337 12.051874 
A 5.928009 12.039227 3.290341 
A 0.762670 18.189266 6.991581 
A 7.496982 1.775951 8.404776 
A 19.064936 4.377856 18.631983 
A 7.758168 15.712371 5.662614 
A 5.315347 11.602898 16.879852 
A 10.393303 0.250324 7.187982 
A 8.421144 14.173711 17.568527 
A 14.227228 17.028258 13.928356 
A 14.924621 13.715180 19.240657 
A 18.093186 6.429783 1.191764 
A 2.179057 3.404320 16.408360 
A 15.309780 1.179802 18.030655 
A 16.874921 16.799032 1.331877 
A 4.860047 2.811368 10.659740 
A 18.254609 14.550974 10.876291 
A 2.105122 0.783654 10.879588 
A 13.227490 17.754155 16.430214 
A 2.985582 14.665622 19.896163 
A 2.624235 5.522275 12.879238 
A 1.346564 11.695907 13.111615 
A 6.798498 4.740816 0.582138 
A 4.645818 2.255911 15.088964 
A 0.223269 12.475146 9.776248 
A 9.367085 19.020951 4.451847 
A 6.391457 17.036580 5.949886 
A 5.977279 7.548641 9.032714 
A 3.266907 11.491260 19.107464 
A 17.062070 2.205567 8.972201 
A 15.778567 10.375212 16.190869 
A 19.936336 18.068486 3.006076 
A 9.424032 9.704503 3.579771 
A 5.204399 13.770741 17.873972 
A 17.123017 19.589110 10.897261 
A 12.585005 3.439411 11.884056 
A 12.139435 17.172440 16.776633 
A 14.313663 19.567691 17.386384 
A 1.804971 11.560841 17.561036 
A 10.416100 3.386944 4.360660 
A 9.615240 18.751985 13.909159 
A 9.231062 6.456299 11.019464 
A 4.128591 13.229976 1.414663 
A 8.448681 5.914866 4.311273 
A 14.068775 13.894962 12.623120 
A 16.767313 13.309144 11.693753 
A 7.378797 6.505545 5.549306 
A 12.678822 7.529321 7.687563 
A 0.853178 2.704794 4.656354 
A 13.155685 14.702599 15.783980 
A 9.304640 3.087758 15.940481 
A 11.668270 10.087557 17.585361 
A 1.597353 6.705407 17.767474 
A 17.937056 8.098507 11.603802 
A 5.105708 11.632819 12.792917 
A 10.540335 4.143384 12.160892 
A 10.082447 10.397527 17.301630 
A 18.299828 5.209408 14.520173 
A 0.553749 3.517100 6.702030 
A 7.192226 19.736743 15.437585 
A 19.507205 15.133764 9.295386 
A 18.205199 14.775970 19.733241 
A 16.558298 5.364146 1.720715 
A 17.453162 1.235394 12.088670 
A 10.588445 19.997740 2.007830 
A 5.591994 4.636043 17.972593 
A 5.374923 8.912154 7.548231 
A 12.695729 17.113435 5.499803 
A 15.306173 15.586965 18.462337 
A 5.852923 10.078820 14.733288 
100
timestep 4  
A 16.098633 5.107177 9.871881 
A 7.789709 1.637657 4.106154 
A 12.070109 9.071769 6.531194 
A 15.274570 19.693842 14.408586 
A 5.105439 7.112308 16.566485 
A 12.963459 7.757861 5.727809 
A 19.332245 17.414107 5.062537 
A 16.691223 6.596260 3.725366 
A 5.658234 17.930496 17.844217 
A 7.923032 4.934571 19.368580 
A 13.025183 14.252468 1.227959 
A 18.306352 14.857311 6.824326 
A 16.455012 19.381666 7.657436 
A 18.543003 17.638511 10.860890 
A 2.901094 18.686049 16.420107 
A 12.840478 9.049141 17.032560 
A 17.274205 16.864284 4.857841 
A 9.501420 17.492525 15.846709 
A 14.139757 6.904273 0.112852 
A 16.709320 13.542081 1.762302 
A 19.015458 12.802017 3.505384 
A 15.000594 6.564686 5.767622 
A 17.354350 16.238046 9.797820 
A 15.040233 1.202491 10.268286 
A 19.091494 6.776388 4.344183 
A 10.882553 0.037051 4.737713 
A 17.887860 1.269987 4.668735 
A 7.434430 10.470569 18.845652 
A 18.869822 5.093761 10.849194 
A 2.407173 17.352596 5.082201 
A 16.550256 4.769775 12.055513 
A 5.928009 12.039227 3.290341 
A 0.762670 18.189266 6.991581 
A 7.496982 1.775951 8.404776 
A 19.064936 4.377856 18.631983 
A 7.766407 15.704389 5.660882 
A 5.315461 11.600671 16.878831 
A 10.393303 0.250324 7.187982 
A 8.421144 14.173711 17.568527 
A 14.227228 17.028258 13.928356 
A 16.519906 11.690005 0.674569 
A 18.101765 6.435732 1.188793 
A 2.179057 3.404320 16.408360 
A 15.314043 1.186701 18.033414 
A 16.874921 16.799032 1.331877 
A 4.860047 2.811368 10.659740 
A 18.256983 14.549268 10.880763 
A 2.105122 0.783654 10.879588 
A 13.245743 17.764010 16.421647 
A 2.984385 14.667125 19.894573 
A 2.624235 5.522275 12.879238 
A 1.346564 11.695907 13.111615 
A 6.745241 4.731640 0.639611 
A 4.645818 2.255911 15.088964 
A 0.223269 12.475146 9.776248 
A 9.353006 19.011511 4.449191 
A 6.383218 17.044562 5.951618 
A 5.979007 7.544731 9.036972 
A 3.270706 11.491079 19.111483 
A 17.062070 2.205567 8.972201 
A 15.778567 10.375212 16.190869 
A 19.937392 18.069614 3.002548 
A 9.424032 9.704503 3.579771 
A 5.204285 13.772968 17.874993 
A 17.120587 19.585317 10.893246 
A 12.589386 3.437903 11.883463 
A 10.475536 19.171852 15.344876 
A 14.310763 19.563068 17.384822 
A 1.801172 11.561022 17.557017 
A 10.416100 3.386944 4.360660 
A 9.615392 18.753667 13.906571 
A 9.231062 6.456299 11.019464 
A 4.129787 13.228473 1.416252 
A 8.464846 5.905942 4.292567 
A 14.068775 13.894962 12.623120 
A 16.763153 13.305659 11.696056 
A 7.362632 6.514470 5.568012 
A 12.680238 7.520524 7.703893 
A 0.853729 2.703299 4.652589 
A 13.155495 14.701345 15.781689 
A 9.304640 3.087758 15.940481 
A 11.669742 10.108373 17.605508 
A 1.597353 6.705407 17.767474 
A 17.937056 8.098507 11.603802 
A 5.105708 11.632819 12.792917 
A 10.535954 4.144893 12.161486 
A 10.048569 10.404689 17.296077 
A 18.299828 5.209408 14.520173 
A 0.553198 3.518594 6.705794 
A 7.192226 19.736743 15.437585 
A 19.512563 15.134552 9.290415 
A 18.205199 14.775970 19.733241 
A 16.549573 5.356789 1.721377 
A 17.454282 1.241009 12.092729 
A 10.588445 19.997740 2.007830 
A 5.591994 4.636043 17.972593 
A 5.373195 8.916064 7.543974 
A 12.695729 17.113435 5.499803 
A 15.355362 15.601849 18.469843 
A 5.852923 10.078820 14.733288 
100
timestep 5  
A 16.097721 5.107858 9.867471 
A 7.789709 1.637657 4.106154 
A 12.048144 9.107695 6.541171 
A 15.274570 19.693842 14.408586 
A 5.105439 7.112308 16.566485 
A 12.981334 7.733610 5.698862 
A 19.337356 17.414450 5.067435 
A 16.689217 6.597807 3.727601 
A 5.658234 17.930496 17.844217 
A 7.979349 4.944275 19.307806 
A 13.025183 14.252468 1.227959 
A 18.306352 14.857311 6.824326 
A 16.455012 19.381666 7.657436 
A 18.548545 17.640991 10.864376 
A 2.901094 18.686049 16.420107 
A 12.876926 9.017507 17.015987 
A 17.267817 16.862573 4.857225 
A 9.500368 17.488988 15.850297 
A 14.139757 6.904273 0.112852 
A 16.709415 13.543014 1.762850 
A 19.015458 12.802017 3.505384 
A 15.003035 6.563232 5.767619 
A 17.346091 16.238654 9.792100 
A 15.040233 1.202491 10.268286 
A 19.093681 6.776555 4.344750 
A 10.899031 0.048099 4.740821 
A 17.887860 1.269987 4.668735 
A 7.434430 10.470569 18.845652 
A 18.869822 5.093761 10.849194 
A 2.407173 17.352596 5.082201 
A 16.551168 4.769094 12.059924 
A 5.928009 12.039227 3.290341 
A 0.762670 18.189266 6.991581 
A 7.496982 1.775951 8.404776 
A 19.064936 4.377856 18.631983 
A 7.776189 15.694910 5.658826 
A 5.315599 11.597964 16.877590 
A 10.393303 0.250324 7.187982 
A 8.421144 14.173711 17.568527 
A 14.227228 17.028258 13.928356 
A 18.115095 9.663899 2.107933 
A 18.111969 6.442809 1.185265 
A 2.179057 3.404320 16.408360 
A 15.319163 1.194988 18.036726 
A 16.874921 16.799032 1.331877 
A 4.860047 2.811368 10.659740 
A 18.259892 14.547233 10.886162 
A 2.105122 0.783654 10.879588 
A 13.263676 17.773325 16.412791 
A 2.982930 14.668952 19.892641 
A 2.624235 5.522275 12.879238 
A 1.346564 11.695907 13.111615 
A 6.688924 4.721936 0.700386 
A 4.645818 2.255911 15.088964 
A 0.223269 12.475146 9.776248 
A 9.336528 19.000463 4.446083 
A 6.373436 17.054040 5.953674 
A 5.981088 7.540019 9.042102 
A 3.275290 11.490861 19.116331 
A 17.062070 2.205567 8.972201 
A 15.778567 10.375212 16.190869 
A 19.938669 18.070982 2.998266 
A 9.424032 9.704503 3.579771 
A 5.204147 13.775675 17.876234 
A 17.117631 19.580786 10.888409 
A 12.594684 3.436079 11.882746 
A 8.814913 1.173930 13.916701 
A 14.307325 19.557600 17.382995 
A 1.796588 11.561240 17.552169 
A 10.416100 3.386944 4.360660 
A 9.613167 18.754538 13.899401 
A 9.231062 6.456299 11.019464 
A 4.131242 13.226646 1.418185 
A 8.483347 5.895727 4.271158 
A 14.068775 13.894962 12.623120 
A 16.758093 13.301426 11.698851 
A 7.344131 6.524685 5.589421 
A 12.681886 7.510305 7.722866 
A 0.854397 2.701489 4.648030 
A 13.155305 14.700090 15.779399 
A 9.304640 3.087758 15.940481 
A 11.672837 10.131810 17.628715 
A 1.597353 6.705407 17.767474 
A 17.937056 8.098507 11.603802 
A 5.105708 11.632819 12.792917 
A 10.530656 4.146717 12.162203 
A 10.009026 10.412885 17.289443 
A 18.299828 5.209408 14.520173 
A 0.552530 3.520405 6.710353 
A 7.192226 19.736743 15.437585 
A 19.519035 15.135505 9.284406 
A 18.205199 14.775970 19.733241 
A 16.539188 5.347997 1.722103 
A 17.455632 1.247766 12.097616 
A 10.588445 19.997740 2.007830 
A 5.591994 4.636043 17.972593 
A 5.371114 8.920776 7.538844 
A 12.695729 17.113435 5.499803 
A 15.404551 15.616734 18.477349 
A 5.852923 10.078820 14.733288 
100
timestep 6  
A 16.096653 5.108655 9.862310 
A 7.789709 1.637657 4.106154 
A 12.024292 9.146835 6.551706 
A 15.274570 19.693842 14.408586 
A 5.105439 7.112308 16.566485 
A 13.000362 7.707662 5.667097 
A 19.343310 17.414841 5.073178 
A 16.686859 6.599626 3.730217 
A 5.658234 17.930496 17.844217 
A 8.037332 4.954265 19.245233 
A 13.025183 14.252468 1.227959 
A 18.306352 14.857311 6.824326 
A 16.455012 19.381666 7.657436 
A 18.555038 17.643827 10.868438 
A 2.901094 18.686049 16.420107 
A 12.916414 8.983059 16.997868 
A 17.260372 16.860579 4.856502 
A 9.499286 17.485104 15.854421 
A 14.139757 6.904273 0.112852 
A 16.709511 13.543946 1.763398 
A 19.015458 12.802017 3.505384 
A 15.006014 6.561465 5.767635 
A 17.336454 16.239376 9.785430 
A 15.040233 1.202491 10.268286 
A 19.096256 6.776750 4.345417 
A 10.917588 0.060541 4.744321 
A 17.887860 1.269987 4.668735 
A 7.434430 10.470569 18.845652 
A 18.869822 5.093761 10.849194 
A 2.407173 17.352596 5.082201 
A 16.552236 4.768296 12.065084 
A 5.928009 12.039227 3.290341 
A 0.762670 18.189266 6.991581 
A 7.496982 1.775951 8.404776 
A 19.064936 4.377856 18.631983 
A 7.787375 15.684072 5.656475 
A 5.315762 11.594784 16.876132 
A 10.393303 0.250324 7.187982 
A 8.421144 14.173711 17.568527 
A 14.227228 17.028258 13.928356 
A 19.710284 7.637792 3.541298 
A 18.123658 6.450921 1.181230 
A 2.179057 3.404320 16.408360 
A 15.325092 1.204583 18.040562 
A 16.874921 16.799032 1.331877 
A 4.860047 2.811368 10.659740 
A 18.263338 14.544898 10.892452 
A 2.105122 0.783654 10.879588 
A 13.281276 17.782069 16.403624 
A 2.981222 14.671097 19.890371 
A 2.624235 5.522275 12.879238 
A 1.346564 11.695907 13.111615 
A 6.630941 4.711946 0.762959 
A 4.645818 2.255911 15.088964 
A 0.223269 12.475146 9.776248 
A 9.317971 18.988021 4.442583 
A 6.362250 17.064878 5.956026 
A 5.983508 7.534542 9.048064 
A 3.280624 11.490607 19.121974 
A 17.062070 2.205567 8.972201 
A 15.778567 10.375212 16.190869 
A 19.940160 18.072585 2.993246 
A 9.424032 9.704503 3.579771 
A 5.203984 13.778855 17.877693 
A 17.114157 19.575575 10.882790 
A 12.600866 3.433950 11.881909 
A 7.154290 3.176007 12.488526 
A 14.303412 19.551393 17.380955 
A 1.791253 11.561494 17.546526 
A 10.416100 3.386944 4.360660 
A 9.610973 18.755756 13.891694 
A 9.231062 6.456299 11.019464 
A 4.132950 13.224500 1.420454 
A 8.503723 5.884478 4.247580 
A 14.068775 13.894962 12.623120 
A 16.752149 13.296459 11.702124 
A 7.323755 6.535934 5.612999 
A 12.683731 7.498878 7.744080 
A 0.855177 2.699373 4.642702 
A 13.155115 14.698836 15.777109 
A 9.304640 3.087758 15.940481 
A 11.677678 10.157253 17.654445 
A 1.597353 6.705407 17.767474 
A 17.937056 8.098507 11.603802 
A 5.105708 11.632819 12.792917 
A 10.524473 4.148845 12.163040 
A 9.964697 10.421891 17.281833 
A 18.299828 5.209408 14.520173 
A 0.551750 3.522520 6.715682 
A 7.192226 19.736743 15.437585 
A 19.526581 15.136618 9.277396 
A 18.205199 14.775970 19.733241 
A 16.527282 5.337871 1.722855 
A 17.457203 1.255609 12.103289 
A 10.588445 19.997740 2.007830 
A 5.591994 4.636043 17.972593 
A 5.368695 8.926253 7.532882 
A 12.695729 17.113435 5.499803 
A 15.453740 15.631618 18.484855 
A 5.852923 10.078820 14.733288 
100
timestep 7  
A 16.095436 5.109565 9.856423 
A 7.789709 1.637657 4.106154 
A 11.999010 9.188447 6.562573 
A 15.274570 19.693842 14.408586 
A 5.105439 7.112308 16.566485 
A 13.020072 7.680585 5.633095 
A 19.350068 17.415274 5.079745 
A 16.684154 6.601712 3.733204 
A 5.658234 17.930496 17.844217 
A 8.096243 4.964415 19.181658 
A 13.025183 14.252468 1.227959 
A 18.306352 14.857311 6.824326 
A 16.455012 19.381666 7.657436 
A 18.562454 17.646978 10.873051 
A 2.901094 18.686049 16.420107 
A 12.958151 8.946479 16.978556 
A 17.251915 16.858317 4.855673 
A 9.498174 17.480886 15.859061 
A 14.139757 6.904273 0.112852 
A 16.709606 13.544879 1.763945 
A 19.015458 12.802017 3.505384 
A 15.009575 6.559367 5.767680 
A 17.325830 16.240042 9.777773 
A 15.040233 1.202491 10.268286 
A 19.089555 6.763425 4.358834 
A 10.937919 0.074173 4.748156 
A 17.887860 1.269987 4.668735 
A 7.434430 10.470569 18.845652 
A 18.869822 5.093761 10.849194 
A 2.407173 17.352596 5.082201 
A 16.553453 4.767387 12.070971 
A 5.928009 12.039227 3.290341 
A 0.762670 18.189266 6.991581 
A 7.496982 1.775951 8.404776 
A 19.064936 4.377856 18.631983 
A 7.799821 15.672013 5.653858 
A 5.315949 11.591141 16.874461 
A 10.393303 0.250324 7.187982 
A 8.421144 14.173711 17.568527 
A 14.227228 17.028258 13.928356 
A 1.315135 5.625233 4.962010 
A 18.136688 6.459967 1.176740 
A 2.179057 3.404320 16.408360 
A 15.331780 1.215406 18.044887 
A 16.874921 16.799032 1.331877 
A 4.860047 2.811368 10.659740 
A 18.267325 14.542293 10.899593 
A 2.105122 0.783654 10.879588 
A 13.298526 17.790208 16.394124 
A 2.979265 14.673555 19.887772 
A 2.624235 5.522275 12.879238 
A 1.346564 11.695907 13.111615 
A 6.572031 4.701796 0.826533 
A 4.645818 2.255911 15.088964 
A 0.223269 12.475146 9.776248 
A 9.297641 18.974390 4.438748 
A 6.349804 17.076938 5.958642 
A 5.986247 7.528342 9.054814 
A 3.286674 11.490319 19.128374 
A 17.062070 2.205567 8.972201 
A 15.778567 10.375212 16.190869 
A 19.941858 18.074414 2.987508 
A 9.424032 9.704503 3.579771 
A 5.203798 13.782498 17.879363 
A 17.110174 19.569744 10.876432 
A 12.607897 3.431530 11.880957 
A 5.493667 5.178085 11.060351 
A 14.299090 19.544562 17.378760 
A 1.785203 11.561782 17.540126 
A 10.416100 3.386944 4.360660 
A 9.608808 18.757309 13.883472 
A 9.231062 6.456299 11.019464 
A 4.134907 13.222043 1.423054 
A 8.525579 5.872411 4.222288 
A 14.068775 13.894962 12.623120 
A 16.745339 13.290776 11.705861 
A 7.301898 6.548001 5.638290 
A 12.685743 7.486442 7.767170 
A 0.856065 2.696962 4.636630 
A 13.154925 14.697581 15.774818 
A 9.304640 3.087758 15.940481 
A 11.684210 10.184219 17.682224 
A 1.597353 6.705407 17.767474 
A 17.937056 8.098507 11.603802 
A 5.105708 11.632819 12.792917 
A 10.517443 4.151266 12.163992 
A 9.916428 10.431505 17.273366 
A 18.299828 5.209408 14.520173 
A 0.550862 3.524932 6.721754 
A 7.192226 19.736743 15.437585 
A 19.534817 15.138053 9.269504 
A 18.205199 14.775970 19.733241 
A 16.513997 5.326516 1.723593 
A 17.458982 1.264474 12.109706 
A 10.588445 19.997740 2.007830 
A 5.591994 4.636043 17.972593 
A 5.365955 8.932453 7.526131 
A 12.695729 17.113435 5.499803 
A 15.502929 15.646503 18.492361 
A 5.852923 10.078820 14.733288 
100
timestep 8  
A 16.094074 5.110583 9.849837 
A 7.789709 1.637657 4.106154 
A 11.972647 9.231955 6.573626 
A 15.274570 19.693842 14.408586 
A 5.105439 7.112308 16.566485 
A 13.040096 7.652803 5.597314 
A 19.357370 17.415621 5.086813 
A 16.681100 6.604059 3.736544 
A 5.658234 17.930496 17.844217 
A 8.155687 4.974658 19.117508 
A 13.025183 14.252468 1.227959 
A 18.306352 14.857311 6.824326 
A 16.455012 19.381666 7.657436 
A 18.570767 17.650401 10.878188 
A 2.901094 18.686049 16.420107 
A 13.001541 8.908294 16.958331 
A 17.242499 16.855800 4.854742 
A 9.497034 17.476347 15.864197 
A 14.139757 6.904273 0.112852 
A 16.709701 13.545811 1.764493 
A 19.015458 12.802017 3.505384 
A 15.013763 6.556915 5.767767 
A 17.314266 16.240663 9.769176 
A 15.040233 1.202491 10.268286 
A 19.083240 6.750127 4.372352 
A 10.959745 0.088807 4.752273 
A 17.887860 1.269987 4.668735 
A 7.434430 10.470569 18.845652 
A 18.869822 5.093761 10.849194 
A 2.407173 17.352596 5.082201 
A 16.554815 4.766369 12.077558 
A 5.928009 12.039227 3.290341 
A 0.762890 18.189387 6.991879 
A 7.496982 1.775951 8.404776 
A 19.064936 4.377856 18.631983 
A 7.813387 15.658869 5.651007 
A 5.316158 11.587046 16.872583 
A 10.393303 0.250324 7.187982 
A 8.421144 14.173711 17.568527 
A 14.227228 17.028258 13.928356 
A 2.919986 3.612674 6.382723 
A 18.150916 6.469851 1.171845 
A 2.179057 3.404320 16.408360 
A 15.339172 1.227370 18.049667 
A 16.874921 16.799032 1.331877 
A 4.859943 2.810978 10.659674 
A 18.271851 14.539449 10.907542 
A 2.105122 0.783654 10.879588 
A 13.315412 17.797710 16.384265 
A 2.977066 14.676318 19.884850 
A 2.624235 5.522275 12.879238 
A 1.346564 11.695907 13.111615 
A 6.512586 4.691553 0.890683 
A 4.645818 2.255911 15.088964 
A 0.223269 12.475146 9.776248 
A 9.275814 18.959755 4.434631 
A 6.336238 17.090082 5.961493 
A 5.989287 7.521461 9.062306 
A 3.293401 11.489999 19.135489 
A 17.062070 2.205567 8.972201 
A 15.778567 10.375212 16.190869 
A 19.943753 18.076463 2.981073 
A 9.424032 9.704503 3.579771 
A 5.203588 13.786593 17.881241 
A 17.105689 19.563357 10.869377 
A 12.615738 3.428830 11.879895 
A 3.833149 7.180553 9.632243 
A 14.294426 19.537229 17.376468 
A 1.778477 11.562102 17.533011 
A 10.416100 3.386944 4.360660 
A 9.606672 18.759182 13.874754 
A 9.231062 6.456299 11.019464 
A 4.137106 13.219280 1.425976 
A 8.548593 5.859705 4.195658 
A 14.068775 13.894962 12.623120 
A 16.737682 13.284397 11.710047 
A 7.278885 6.560706 5.664921 
A 12.687893 7.473168 7.791812 
A 0.857059 2.694267 4.629844 
A 13.154735 14.696327 15.772528 
A 9.304640 3.087758 15.940481 
A 11.692267 10.212345 17.711651 
A 1.597353 6.705407 17.767474 
A 17.937056 8.098507 11.603802 
A 5.105708 11.632819 12.792917 
A 10.509602 4.153966 12.165053 
A 9.864981 10.441564 17.264164 
A 18.299828 5.209408 14.520173 
A 0.549868 3.527626 6.728539 
A 7.192226 19.736743 15.437585 
A 19.543708 15.139797 9.260769 
A 18.205199 14.775970 19.733241 
A 16.499476 5.314036 1.724281 
A 17.460958 1.274297 12.116820 
A 10.588445 19.997740 2.007830 
A 5.591994 4.636043 17.972593 
A 5.362915 8.939334 7.518639 
A 12.695729 17.113435 5.499803 
A 15.552119 15.661387 18.499867 
A 5.852923 10.078820 14.733288 
100
timestep 9  
A 16.092572 5.111704 9.842578 
A 7.789709 1.637657 4.106154 
A 11.945466 9.276921 6.584767 
A 15.274570 19.693842 14.408586 
A 5.105439 7.112308 16.566485 
A 13.060146 7.624626 5.560108 
A 19.365167 17.415873 5.094348 
A 16.677698 6.606664 3.740220 
A 5.658234 17.930496 17.844217 
A 8.215448 4.984954 19.053016 
A 13.025183 14.252468 1.227959 
A 18.306352 14.857311 6.824326 
A 16.455012 19.381666 7.657436 
A 18.579945 17.654053 10.883821 
A 2.901094 18.686049 16.420107 
A 13.046140 8.868904 16.937411 
A 17.232173 16.853043 4.853711 
A 9.495869 17.471502 15.869807 
A 14.139757 6.904273 0.112852 
A 16.709797 13.546744 1.765040 
A 19.015458 12.802017 3.505384 
A 15.018628 6.554088 5.767912 
A 17.301809 16.241246 9.759690 
A 15.040233 1.202491 10.268286 
A 19.077313 6.736852 4.385973 
A 10.982822 0.104280 4.756626 
A 17.887860 1.269987 4.668735 
A 7.434430 10.470569 18.845652 
A 18.869822 5.093761 10.849194 
A 2.407173 17.352596 5.082201 
A 16.556317 4.765247 12.084816 
A 5.928009 12.039227 3.290341 
A 0.763336 18.189632 6.992483 
A 7.496982 1.775951 8.404776 
A 19.064936 4.377856 18.631983 
A 7.827940 15.644769 5.647948 
A 5.316390 11.582510 16.870503 
A 10.393303 0.250324 7.187982 
A 8.421144 14.173711 17.568527 
A 14.227228 17.028258 13.928356 
A 4.525353 1.600134 7.803360 
A 18.166207 6.480478 1.166596 
A 2.179057 3.404320 16.408360 