100
timestep 0  
A 1.375241 13.682545 2.532901 
A 10.451769 14.810755 9.447859 
A 17.377466 3.063695 11.522711 
A 2.204860 17.083946 9.878378 
A 5.892264 6.639952 6.500083 
A 19.063085 2.239837 13.918951 
A 18.464123 5.071090 5.548596 
A 0.297585 1.511400 2.091472 
A 11.372423 16.310862 16.662694 
A 9.897592 3.511951 19.942566 
A 14.644909 9.998709 18.797878 
A 6.547536 9.875222 17.003730 
A 16.891454 14.664568 7.393043 
A 14.873932 7.018765 10.792470 
A 12.648614 15.312805 0.836953 
A 18.666808 13.034843 16.598289 
A 7.444104 11.971781 16.350550 
A 12.047552 3.199057 6.555434 
A 17.179911 2.766921 3.637960 
A 3.187052 5.249947 18.485708 
A 0.909803 10.956982 13.308881 
A 4.055768 4.152732 16.414594 
A 2.802687 4.763851 6.049711 
A 17.491982 7.741954 19.027524 
A 15.596335 4.906789 2.306866 
A 19.461179 4.039884 18.330030 
A 12.809368 12.917930 3.858517 
A 16.175662 4.349165 16.411337 
A 5.341797 19.584816 1.998368 
A 6.569154 11.990714 9.438940 
A 15.904443 7.304826 15.262790 
A 1.607079 7.126318 4.103000 
A 18.477174 5.869618 10.674037 
A 2.970541 6.550886 16.673001 
A 8.786163 9.042775 1.913039 
A 12.441084 17.298311 12.712247 
A 14.746599 16.482111 10.809738 
A 19.352553 18.350169 11.292675 
A 15.983691 8.665260 14.076434 
A 15.911088 11.019693 19.830964 
A 6.879242 19.426252 17.013666 
A 8.685006 8.892092 9.397150 
A 17.897284 19.654100 6.456458 
A 13.685771 3.263025 17.282925 
A 8.473748 18.282802 19.051990 
A 6.803226 1.814046 8.664862 
A 10.329619 9.912307 16.143385 
A 1.867197 1.979797 14.451764 
A 10.804702 12.732677 9.394359 
A 11.357727 5.982917 10.077504 
A 5.711054 6.820621 2.762681 
A 3.308783 10.707710 4.490252 
A 7.659825 12.728209 1.541375 
A 14.614744 11.005947 12.946113 
A 3.231553 12.705308 18.111242 
A 15.647849 3.388762 19.145195 
A 19.837392 7.051890 1.117144 
A 15.839119 8.076669 4.579798 
A 12.669748 0.452119 18.763258 
A 14.080654 13.551277 16.305859 
A 12.579783 8.408848 7.508413 
A 13.902931 8.519506 13.223529 
A 13.087257 16.315575 1.775360 
A 6.485876 6.982369 4.098821 
A 15.577581 12.397783 9.545991 
A 19.467865 16.414337 15.768816 
A 6.491835 13.326249 10.275117 
A 8.515530 11.648245 14.715804 
A 2.037922 11.454327 13.570362 
A 15.384952 18.062967 11.015552 
A 1.583611 15.750189 13.423904 
A 15.551719 17.743462 14.359838 
A 5.784860 10.660433 16.456964 
A 15.128509 8.945099 11.872152 
A 8.004267 13.672804 0.284102 
A 6.184293 19.407710 5.384077 
A 10.190500 11.733463 4.309235 
A 5.314647 4.668614 8.632457 
A 6.275260 6.908566 9.032051 
A 1.102283 9.122156 3.996985 
A 17.963833 11.776146 19.336570 
A 11.268578 4.300498 10.102996 
A 4.336441 7.197959 7.268990 
A 17.736980 5.429926 0.764800 
A 13.979337 17.161476 10.227180 
A 4.922345 9.850596 18.970547 
A 17.984305 3.651036 7.230192 
A 12.786547 15.127583 2.316326 
A 17.525583 3.492787 14.289061 
A 13.587297 3.667240 18.549425 
A 8.345131 1.931012 19.926920 
A 11.795506 7.076988 2.931524 
A 10.137780 15.640228 8.946369 
A 14.046967 7.375602 1.743739 
A 7.025782 13.047277 8.051740 
A 15.307898 4.067242 1.138142 
A 11.734283 6.742527 11.477796 
A 16.130306 2.055477 6.400497 
A 13.149490 4.853183 10.793010 
A 12.929180 14.390079 4.390859 
100
timestep 1  
A 1.375241 13.682545 2.532901 
A 10.392595 14.968148 9.353925 
A 17.377466 3.063695 11.522711 
A 2.204860 17.083946 9.878378 
A 5.896531 6.638334 6.498306 
A 19.065044 2.238240 13.918479 
A 18.464379 5.071850 5.547696 
A 0.297585 1.511400 2.091472 
A 11.372423 16.310862 16.662694 
A 9.898538 3.512914 19.942575 
A 14.642599 9.996846 18.795993 
A 6.568860 9.852184 17.019482 
A 16.891454 14.664568 7.393043 
A 14.873781 7.017620 10.791829 
A 12.640174 15.299557 0.804590 
A 18.666808 13.034843 16.598289 
A 7.444297 11.974151 16.352624 
A 12.047552 3.199057 6.555434 
A 17.179911 2.766921 3.637960 
A 3.186969 5.249481 18.487202 
A 0.877792 10.942870 13.301461 
A 4.055972 4.152475 16.414108 
A 2.802687 4.763851 6.049711 
A 17.491982 7.741954 19.027524 
A 15.600257 4.918208 2.322765 
A 19.461179 4.039884 18.330030 
A 12.808344 12.905342 3.853966 
A 16.175662 4.349165 16.411337 
A 5.341797 19.584816 1.998368 
A 6.568397 11.976451 9.436270 
A 15.904206 7.300745 15.266350 
A 1.607623 7.124168 4.103114 
A 18.477174 5.869618 10.674037 
A 2.970420 6.551609 16.671993 
A 8.786163 9.042775 1.913039 
A 12.441084 17.298311 12.712247 
A 14.761449 16.459450 10.822249 
A 19.352553 18.350169 11.292675 
A 15.985333 8.669322 14.074090 
A 15.912263 11.021137 19.833123 
A 6.879242 19.426252 17.013666 
A 8.685006 8.892092 9.397150 
A 17.897284 19.654100 6.456458 
A 13.688098 3.253455 17.252936 
A 8.473748 18.282802 19.051990 
A 6.803226 1.814046 8.664862 
A 10.329619 9.912307 16.143385 
A 1.867197 1.979797 14.451764 
A 10.805027 12.730759 9.394306 
A 11.354787 5.987324 10.068147 
A 5.703894 6.819127 2.750334 
A 3.308783 10.707710 4.490252 
A 7.657368 12.721469 1.550346 
A 14.614567 11.006660 12.946484 
A 3.231553 12.705308 18.111242 
A 15.649643 3.388002 19.144003 
A 19.837392 7.051890 1.117144 
A 15.839119 8.076669 4.579798 
A 12.669748 0.452119 18.763258 
A 14.080654 13.551277 16.305859 
A 12.579783 8.408848 7.508413 
A 13.899036 8.518461 13.226144 
A 13.101026 16.358697 1.777265 
A 6.493129 6.983918 4.110790 
A 15.577581 12.397783 9.545991 
A 19.467865 16.414337 15.768816 
A 6.490955 13.337409 10.283032 
A 8.517104 11.647770 14.713402 
A 2.069932 11.468440 13.577782 
A 15.391380 18.072282 11.018483 
A 1.583611 15.750189 13.423904 
A 15.551719 17.743462 14.359838 
A 5.761770 10.681576 16.441540 
A 15.131327 8.946594 11.868591 
A 8.006725 13.679544 0.275131 
A 6.184293 19.407710 5.384077 
A 10.190500 11.733463 4.309235 
A 5.314400 4.668036 8.632354 
A 6.275508 6.909144 9.032154 
A 1.101739 9.124306 3.996871 
A 17.964969 11.776565 19.336297 
A 11.266222 4.291383 10.102423 
A 4.332080 7.199523 7.271145 
A 17.736980 5.429926 0.764800 
A 13.958059 17.174821 10.211738 
A 4.922345 9.850596 18.970547 
A 17.984048 3.650276 7.231092 
A 12.781130 15.098170 2.345495 
A 17.523623 3.494384 14.289532 
A 13.583453 3.677014 18.578973 
A 8.344185 1.930048 19.926910 
A 11.795506 7.076988 2.931524 
A 10.196630 15.484754 9.040356 
A 14.046967 7.375602 1.743739 
A 7.027419 13.050379 8.046494 
A 15.303698 4.056379 1.123876 
A 11.736276 6.747828 11.486805 
A 16.130306 2.055477 6.400497 
A 13.152793 4.852590 10.793932 
A 12.930293 14.402207 4.396699 
100
timestep 2  
A 1.375241 13.682545 2.532901 
A 18.194044 12.576686 5.830402 
A 17.377466 3.063695 11.522711 
A 2.204860 17.083946 9.878378 
A 5.903492 6.635658 6.495540 
A 19.068285 2.235599 13.917699 
A 18.464806 5.073112 5.546201 
A 0.297585 1.511400 2.091472 
A 11.372423 16.310862 16.662694 
A 9.900110 3.514515 19.942591 
A 14.638785 9.993771 18.792880 
A 6.604148 9.814121 17.045523 
A 16.891454 14.664568 7.393043 
A 14.873528 7.015716 10.790763 
A 12.627504 15.279678 0.755985 
A 18.666808 13.034843 16.598289 
A 7.444611 11.978041 16.356072 
A 12.047552 3.199057 6.555434 
A 17.179911 2.766921 3.637960 
A 3.186965 5.248537 18.489361 
A 0.827237 10.920582 13.289743 
A 4.056175 4.152218 16.413623 
A 2.802687 4.763851 6.049711 
A 17.491982 7.741954 19.027524 
A 15.606409 4.936105 2.347673 
A 19.461179 4.039884 18.330030 
A 12.806710 12.885282 3.846706 
A 16.175662 4.349165 16.411337 
A 5.341797 19.584816 1.998368 
A 6.567132 11.953568 9.432190 
A 15.903813 7.294051 15.272185 
A 1.608523 7.120609 4.103303 
A 18.477174 5.869618 10.674037 
A 2.970220 6.552810 16.670319 
A 8.786163 9.042775 1.913039 
A 12.441084 17.298311 12.712247 
A 14.790186 16.418726 10.846053 
A 19.352553 18.350169 11.292675 
A 15.988059 8.675985 14.070275 
A 15.914184 11.023515 19.836692 
A 6.879242 19.426252 17.013666 
A 8.685006 8.892092 9.397150 
A 17.897284 19.654100 6.456458 
A 13.691697 3.238741 17.206843 
A 8.473748 18.282802 19.051990 
A 6.803226 1.814046 8.664862 
A 10.329619 9.912307 16.143385 
A 1.867197 1.979797 14.451764 
A 10.805487 12.728103 9.394265 
A 11.350001 5.994591 10.052939 
A 5.692511 6.816750 2.730708 
A 3.308783 10.707710 4.490252 
A 7.653425 12.710659 1.564735 
A 14.614271 11.007845 12.947103 
A 3.231553 12.705308 18.111242 
A 15.652658 3.386711 19.141943 
A 19.837392 7.051890 1.117144 
A 15.839119 8.076669 4.579798 
A 12.669748 0.452119 18.763258 
A 14.080654 13.551277 16.305859 
A 12.579783 8.408848 7.508413 
A 13.892620 8.516742 13.230433 
A 13.121719 16.423517 1.780089 
A 6.504703 6.986405 4.129648 
A 15.577581 12.397783 9.545991 
A 19.467865 16.414337 15.768816 
A 6.489549 13.355209 10.295663 
A 8.519708 11.646982 14.709428 
A 2.120488 11.490728 13.589500 
A 15.401620 18.087177 11.023144 
A 1.583611 15.750189 13.423904 
A 15.551719 17.743462 14.359838 
A 5.723563 10.716537 16.416025 
A 15.135958 8.949062 11.862731 
A 8.010667 13.690354 0.260742 
A 6.184293 19.407710 5.384077 
A 10.190500 11.733463 4.309235 
A 5.313988 4.667075 8.632182 
A 6.275920 6.910105 9.032325 
A 1.100839 9.127865 3.996681 
A 17.966862 11.777262 19.335840 
A 11.262352 4.276517 10.101507 
A 4.324929 7.202089 7.274679 
A 17.736980 5.429926 0.764800 
A 13.919083 17.200650 10.183273 
A 4.922345 9.850596 18.970547 
A 17.983622 3.649014 7.232586 
A 12.772948 15.054021 2.389009 
A 17.520382 3.497025 14.290313 
A 13.577318 3.692075 18.624346 
A 8.342613 1.928448 19.926894 
A 11.795506 7.076988 2.931524 
A 2.394721 17.878871 12.563920 
A 14.046967 7.375602 1.743739 
A 7.030090 13.055463 8.037943 
A 15.297068 4.039425 1.101747 
A 11.739496 6.756396 11.501413 
A 16.130306 2.055477 6.400497 
A 13.158229 4.851621 10.795448 
A 12.932085 14.421474 4.406226 
100
timestep 3  
A 1.375241 13.682545 2.532901 
A 5.995493 10.185225 2.306878 
A 17.377466 3.063695 11.522711 
A 2.204860 17.083946 9.878378 
A 5.912979 6.631977 6.491887 
A 19.072772 2.231942 13.916619 
A 18.465400 5.074870 5.544119 
A 0.297585 1.511400 2.091472 
A 11.372423 16.310862 16.662694 
A 9.902298 3.516743 19.942613 
A 14.633523 9.989526 18.788582 
A 6.649384 9.765257 17.078934 
A 16.891454 14.664568 7.393043 
A 14.873173 7.013054 10.789277 
A 12.611978 15.255354 0.696335 
A 18.666808 13.034843 16.598289 
A 7.445033 11.983360 16.360878 
A 12.047552 3.199057 6.555434 
A 17.179911 2.766921 3.637960 
A 3.187040 5.247122 18.492178 
A 0.763928 10.892671 13.275069 
A 4.056379 4.151961 16.413138 
A 2.802687 4.763851 6.049711 
A 17.491982 7.741954 19.027524 
A 15.614335 4.959147 2.379732 
A 19.461179 4.039884 18.330030 
A 12.804561 12.858893 3.837141 
A 16.175662 4.349165 16.411337 
A 5.341797 19.584816 1.998368 
A 6.565361 11.923183 9.427135 
A 15.903271 7.284897 15.280160 
A 1.609772 7.115673 4.103565 
A 18.477174 5.869618 10.674037 
A 2.969942 6.554483 16.667988 
A 8.786163 9.042775 1.913039 
A 12.441084 17.298311 12.712247 
A 14.830509 16.362774 10.879300 
A 19.352553 18.350169 11.292675 
A 15.991850 8.685102 14.065113 
A 15.916797 11.026785 19.841632 
A 6.879242 19.426252 17.013666 
A 8.685006 8.892092 9.397150 
A 17.897284 19.654100 6.456458 
A 13.696208 3.220409 17.149439 
A 8.473748 18.282802 19.051990 
A 6.803226 1.814046 8.664862 
A 10.329619 9.912307 16.143385 
A 1.867197 1.979797 14.451764 
A 10.805947 12.725448 9.394225 
A 11.343520 6.004596 10.032395 
A 5.677579 6.813632 2.704967 
A 3.308783 10.707710 4.490252 
A 7.648195 12.696315 1.583827 
A 14.613856 11.009498 12.947967 
A 3.231553 12.705308 18.111242 
A 15.656925 3.384859 19.138908 
A 19.837392 7.051890 1.117144 
A 15.839119 8.076669 4.579798 
A 12.669748 0.452119 18.763258 
A 14.080654 13.551277 16.305859 
A 12.579783 8.408848 7.508413 
A 13.883790 8.514380 13.236296 
A 13.146969 16.502531 1.783722 
A 6.519932 6.989694 4.154209 
A 15.577581 12.397783 9.545991 
A 19.467865 16.414337 15.768816 
A 6.487692 13.378650 10.312315 
A 8.523310 11.645886 14.703924 
A 2.183797 11.518638 13.604174 
A 15.415035 18.106809 11.029235 
A 1.583455 15.749779 13.424069 
A 15.551719 17.743462 14.359838 
A 5.674304 10.761177 16.383312 
A 15.142310 8.952471 11.854674 
A 8.015897 13.704698 0.241650 
A 6.184293 19.407710 5.384077 
A 10.190500 11.733463 4.309235 
A 5.313412 4.665733 8.631943 
A 6.276496 6.911447 9.032565 
A 1.099591 9.132800 3.996419 
A 17.969511 11.778237 19.335199 
A 11.257052 4.256347 10.100299 
A 4.315145 7.205598 7.279512 
A 17.736980 5.429926 0.764800 
A 13.865345 17.236972 10.143934 
A 4.922345 9.850596 18.970547 
A 17.983027 3.647256 7.234669 
A 12.762973 15.000487 2.441598 
A 17.515896 3.500681 14.291393 
A 13.569241 3.710905 18.680774 
A 8.340425 1.926220 19.926872 
A 11.795506 7.076988 2.931524 
A 14.592967 0.273398 16.087318 
A 14.046967 7.375602 1.743739 
A 7.033718 13.062405 8.026345 
A 15.288440 4.017738 1.073701 
A 11.743806 6.767882 11.521081 
A 16.130306 2.055477 6.400497 
A 13.165700 4.850299 10.797532 
A 12.934485 14.446706 4.419219 
100
timestep 4  
A 1.375241 13.682545 2.532901 
A 13.796942 7.793763 18.783355 
A 17.377466 3.063695 11.522711 
A 2.204860 17.083946 9.878378 
A 5.924783 6.627357 6.487477 
A 19.078455 2.227311 13.915251 
A 18.466159 5.077117 5.541459 
A 0.297585 1.511400 2.091472 
A 11.372423 16.310862 16.662694 
A 9.905090 3.519587 19.942641 
A 14.626883 9.984167 18.783153 
A 6.700286 9.710076 17.116612 
A 16.891454 14.664568 7.393043 
A 14.872714 7.009642 10.787379 
A 12.594677 15.228304 0.629729 
A 18.666808 13.034843 16.598289 
A 7.445542 11.989994 16.367019 
A 12.047552 3.199057 6.555434 
A 17.179911 2.766921 3.637960 
A 3.187191 5.245244 18.495640 
A 0.693185 10.861483 13.258672 
A 4.056583 4.151703 16.412652 
A 2.802687 4.763851 6.049711 
A 17.491982 7.741954 19.027524 
A 15.623587 4.986018 2.417102 
A 19.461179 4.039884 18.330030 
A 12.801994 12.827409 3.825708 
A 16.175662 4.349165 16.411337 
A 5.341797 19.584816 1.998368 
A 6.563098 11.886534 9.421536 
A 15.902586 7.273472 15.290106 
A 1.611356 7.109408 4.103898 
A 18.477174 5.869618 10.674037 
A 2.969587 6.556618 16.665011 
A 8.786163 9.042775 1.913039 
A 12.441084 17.298311 12.712247 
A 14.877445 16.296981 10.918086 
A 19.352553 18.350169 11.292675 
A 15.996681 8.696485 14.058763 
A 15.920034 11.030894 19.847888 
A 6.879242 19.426252 17.013666 
A 8.685006 8.892092 9.397150 
A 17.897284 19.654100 6.456458 
A 13.701308 3.199800 17.084924 
A 8.473748 18.282802 19.051990 
A 6.803226 1.814046 8.664862 
A 10.329619 9.912307 16.143385 
A 1.867197 1.979797 14.451764 
A 10.806407 12.722792 9.394185 
A 11.335527 6.017165 10.007139 
A 5.659813 6.809922 2.674352 
A 3.308783 10.707710 4.490252 
A 7.641895 12.679037 1.606824 
A 14.613323 11.011612 12.949077 
A 3.231553 12.705308 18.111242 
A 15.662478 3.382405 19.134749 
A 19.837392 7.051890 1.117144 
A 15.839119 8.076669 4.579798 
A 12.669748 0.452119 18.763258 
A 14.080654 13.551277 16.305859 
A 12.579783 8.408848 7.508413 
A 13.872683 8.511412 13.243611 
A 13.174942 16.589946 1.788024 
A 6.538107 6.993643 4.183204 
A 15.577581 12.397783 9.545991 
A 19.467865 16.414337 15.768816 
A 6.485467 13.406655 10.332239 
A 8.527871 11.644490 14.696947 
A 2.254540 11.549826 13.620571 
A 15.430930 18.130229 11.036432 
A 1.583299 15.749370 13.424235 
A 15.551719 17.743462 14.359838 
A 5.618332 10.811121 16.346469 
A 15.150263 8.956779 11.844554 
A 8.022198 13.721976 0.218653 
A 6.184293 19.407710 5.384077 
A 10.190500 11.733463 4.309235 
A 5.312674 4.664013 8.631636 
A 6.277233 6.913167 9.032872 
A 1.098006 9.139066 3.996086 
A 17.972914 11.779488 19.334372 
A 11.250424 4.231427 10.098858 
A 4.302932 7.209980 7.285542 
A 17.736980 5.429926 0.764800 
A 13.802514 17.279343 10.097952 
A 4.922345 9.850596 18.970547 
A 17.982269 3.645010 7.237328 
A 12.751928 14.941677 2.499054 
A 17.510212 3.505313 14.292761 
A 13.559547 3.732173 18.744086 
A 8.337633 1.923376 19.926844 
A 11.795506 7.076988 2.931524 
A 6.791214 2.667924 19.610717 
A 14.046967 7.375602 1.743739 
A 7.038206 13.071050 8.012021 
A 15.278229 3.992662 1.041693 
A 11.749048 6.781877 11.545164 
A 16.130306 2.055477 6.400497 
A 13.175079 4.848655 10.800146 
A 12.937426 14.476637 4.435500 
100
timestep 5  
A 1.375241 13.682545 2.532901 
A 1.598174 5.401729 15.259831 
A 17.377466 3.063695 11.522711 
A 2.204860 17.083946 9.878378 
A 5.938661 6.621869 6.482460 
A 19.085278 2.221751 13.913609 
A 18.467079 5.079840 5.538234 
A 0.297585 1.511400 2.091472 
A 11.372423 16.310862 16.662694 
A 9.908473 3.523031 19.942675 
A 14.619165 9.978333 18.776658 
A 6.754246 9.651780 17.156468 
A 16.891454 14.664568 7.393043 
A 14.872148 7.005485 10.785077 
A 12.576307 15.199641 0.558866 
A 18.666808 13.034843 16.598289 
A 7.446001 11.997473 16.374575 
A 12.047552 3.199057 6.555434 
A 17.179911 2.766921 3.637960 
A 3.187417 5.242914 18.499733 
A 0.618380 10.828505 13.241333 
A 4.056786 4.151446 16.412167 
A 2.802687 4.763851 6.049711 
A 17.491982 7.741954 19.027524 
A 15.633790 5.015622 2.458256 
A 19.461179 4.039884 18.330030 
A 12.799111 12.791641 3.813024 
A 16.175662 4.349165 16.411337 
A 5.341797 19.584816 1.998368 
A 6.560375 11.844808 9.415745 
A 15.901764 7.259994 15.301828 
A 1.613264 7.101867 4.104299 
A 18.477174 5.869618 10.674037 
A 2.969157 6.559205 16.661404 
A 8.786163 9.042775 1.913039 
A 12.441084 17.298311 12.712247 
A 14.927536 16.225371 10.959661 
A 19.352553 18.350169 11.292675 
A 16.002523 8.709922 14.051399 
A 15.923813 11.035775 19.855399 
A 6.879242 19.426252 17.013666 
A 8.685006 8.892092 9.397150 
A 17.897284 19.654100 6.456458 
A 13.706772 3.177829 17.016166 
A 8.473748 18.282802 19.051990 
A 6.803226 1.814046 8.664862 
A 10.329619 9.912307 16.143385 
A 1.867197 1.979797 14.451764 
A 10.806868 12.720137 9.394144 
A 11.326219 6.032075 9.977830 
A 5.639869 6.805756 2.639996 
A 3.308783 10.707710 4.490252 
A 7.634737 12.659407 1.632952 
A 14.612672 11.014178 12.950430 
A 3.231553 12.705308 18.111242 
A 15.669348 3.379304 19.129288 
A 19.837392 7.051890 1.117144 
A 15.839119 8.076669 4.579798 
A 12.669748 0.452119 18.763258 
A 14.080654 13.551277 16.305859 
A 12.579783 8.408848 7.508413 
A 13.859460 8.507886 13.252234 
A 13.204489 16.682170 1.792821 
A 6.558587 6.998123 4.215462 
A 15.577581 12.397783 9.545991 
A 19.467865 16.414337 15.768816 
A 6.482947 13.438214 10.354737 
A 8.533341 11.642804 14.688566 
A 2.329345 11.582805 13.637910 
A 15.448679 18.156556 11.044445 
A 1.583143 15.748960 13.424400 
A 15.551719 17.743462 14.359838 
A 5.558442 10.863623 16.307439 
A 15.159683 8.961938 11.832521 
A 8.029356 13.741606 0.192525 
A 6.184293 19.407710 5.384077 
A 10.190500 11.733463 4.309235 
A 5.311776 4.661918 8.631262 
A 6.278132 6.915262 9.033245 
A 1.096098 9.146607 3.995686 
A 17.977070 11.781013 19.333356 
A 11.242584 4.202360 10.097236 
A 4.288517 7.215153 7.292656 
A 17.736980 5.429926 0.764800 
A 13.734674 17.324627 10.048364 
A 4.922345 9.850596 18.970547 
A 17.981348 3.642286 7.240554 
A 12.740200 14.880426 2.558305 
A 17.503389 3.510873 14.294403 
A 13.548473 3.754972 18.811453 
A 8.338258 1.918002 19.927629 
A 11.795506 7.076988 2.931524 
A 18.985453 5.064380 3.133296 
A 14.046967 7.375602 1.743739 
A 7.043449 13.081218 7.995314 
A 15.266768 3.965331 1.007391 
A 11.755266 6.797679 11.572880 
A 16.130306 2.055477 6.400497 
A 13.186010 4.847011 10.803361 
A 12.940859 14.510095 4.454999 
100
timestep 6  
A 1.375241 13.682545 2.532901 
A 9.398956 3.009315 11.735849 
A 17.377466 3.063695 11.522711 
A 2.204860 17.083946 9.878378 
A 5.954361 6.615589 6.477001 
A 19.093174 2.215316 13.911708 
A 18.468065 5.083032 5.534884 
A 0.297585 1.511400 2.091472 
A 11.372423 16.310862 16.662694 
A 9.912429 3.527062 19.942715 
A 14.610244 9.971524 18.769167 
A 6.809809 9.591862 17.197461 
A 16.891454 14.664568 7.393043 
A 14.871474 7.000594 10.782381 
A 12.557294 15.170030 0.485391 
A 18.666808 13.034843 16.598289 
A 7.446409 12.005713 16.383483 
A 12.047552 3.199057 6.555434 
A 17.179911 2.766921 3.637960 
A 3.187716 5.240146 18.504439 
A 0.541365 10.794552 13.223482 
A 4.056990 4.151189 16.411681 
A 2.802687 4.763851 6.049711 
A 17.491982 7.741954 19.027524 
A 15.644659 5.047137 2.502049 
A 19.461179 4.039884 18.330030 
A 12.795994 12.752497 3.799467 
A 16.175662 4.349165 16.411337 
A 5.341797 19.584816 1.998368 
A 6.557232 11.799045 9.410010 
A 15.900815 7.244687 15.315128 
A 1.615477 7.093114 4.104764 
A 18.477174 5.869618 10.674037 
A 2.969103 6.562610 16.657642 
A 8.786163 9.042775 1.913039 
A 12.441084 17.298311 12.712247 
A 14.979055 16.150272 11.002608 
A 19.352553 18.350169 11.292675 
A 16.009338 8.725193 14.043203 
A 15.928045 11.041360 19.864095 
A 6.879242 19.426252 17.013666 
A 8.685006 8.892092 9.397150 
A 17.897284 19.654100 6.456458 
A 13.712456 3.155053 16.944902 
A 8.473748 18.282802 19.051990 
A 6.803226 1.814046 8.664862 
A 10.329619 9.912307 16.143385 
A 1.867197 1.979797 14.451764 
A 10.807328 12.717482 9.394104 
A 11.315785 6.049073 9.945105 
A 5.618293 6.801249 2.602841 
A 3.308783 10.707710 4.490252 
A 7.626907 12.637935 1.661532 
A 14.611903 11.017186 12.952024 
A 3.231553 12.705308 18.111242 
A 15.677561 3.375513 19.122323 
A 19.837392 7.051890 1.117144 
A 15.839119 8.076669 4.579798 
A 12.669748 0.452119 18.763258 
A 14.080654 13.551277 16.305859 
A 12.579783 8.408848 7.508413 
A 13.844292 8.503847 13.262018 
A 13.234949 16.777161 1.797957 
A 6.580843 7.003032 4.249998 
A 15.577581 12.397783 9.545991 
A 19.467865 16.414337 15.768816 
A 6.480198 13.472474 10.379218 
A 8.539666 11.640839 14.678861 
A 2.406360 11.616758 13.655761 
A 15.467781 18.185052 11.053048 
A 1.582987 15.748551 13.424566 
A 15.551719 17.743462 14.359838 
A 5.496146 10.917267 16.267243 
A 15.170427 8.967895 11.818734 
A 8.037185 13.763078 0.163946 
A 6.184293 19.407710 5.384077 
A 10.190500 11.733463 4.309235 
A 5.310719 4.659454 8.630823 
A 6.279188 6.917726 9.033685 
A 1.093885 9.155360 3.995221 
A 17.981976 11.782811 19.332150 
A 11.233651 4.169749 10.095483 
A 4.272137 7.221032 7.300735 
A 17.736980 5.429926 0.764800 
A 13.664053 17.371230 9.996814 
A 4.922345 9.850596 18.970547 
A 17.980271 3.639097 7.244330 
A 12.727963 14.818175 2.617430 
A 17.495493 3.517308 14.296304 
A 13.536189 3.778752 18.881177 
A 8.338309 1.912041 19.928409 
A 11.795506 7.076988 2.931524 
A 11.179784 7.460833 6.655449 
A 14.046967 7.375602 1.743739 
A 7.049341 13.092720 7.976568 
A 15.254285 3.936604 0.972102 
A 11.762290 6.814920 11.603594 
A 16.130306 2.055477 6.400497 
A 13.198351 4.845383 10.807126 
A 12.944767 14.546109 4.477770 
100
timestep 7  
A 1.375241 13.682545 2.532901 
A 17.199739 0.616901 8.211866 
A 17.377466 3.063695 11.522711 
A 2.204860 17.083946 9.878378 
A 5.971628 6.608586 6.471271 
A 19.102073 2.208064 13.909566 
A 18.469203 5.086675 5.531000 
A 0.297585 1.511400 2.091472 
A 11.372423 16.310862 16.662694 
A 9.916942 3.531664 19.942759 
A 14.600215 9.963815 18.760757 
A 6.866232 9.531075 17.239064 
A 16.891454 14.664568 7.393043 
A 14.870691 6.994979 10.779304 
A 12.537889 15.139854 0.410288 
A 18.666808 13.034843 16.598289 
A 7.446757 12.014629 16.393676 
A 12.047552 3.199057 6.555434 
A 17.179911 2.766921 3.637960 
A 3.188086 5.236951 18.509740 
A 0.463121 10.760057 13.205346 
A 4.057194 4.150932 16.411196 
A 2.802687 4.763851 6.049711 
A 17.491982 7.741954 19.027524 
A 15.655996 5.079980 2.547673 
A 19.461179 4.039884 18.330030 
A 12.792709 12.710670 3.785347 
A 16.175662 4.349165 16.411337 
A 5.341797 19.584816 1.998368 
A 6.553720 11.750111 9.404477 
A 15.899749 7.227773 15.329808 
A 1.617980 7.083218 4.105289 
A 18.477174 5.869618 10.674037 
A 2.968979 6.566441 16.653286 
A 8.786163 9.042775 1.913039 
A 12.441084 17.298311 12.712247 
A 15.031222 16.072990 11.046257 
A 19.352553 18.350169 11.292675 
A 16.017086 8.742080 14.034350 
A 15.932640 11.047575 19.873904 
A 6.879242 19.426252 17.013666 
A 8.685006 8.892092 9.397150 
A 17.897284 19.654100 6.456458 
A 13.718276 3.131794 16.872142 
A 8.473748 18.282802 19.051990 
A 6.803226 1.814046 8.664862 
A 10.329619 9.912307 16.143385 
A 1.867197 1.979797 14.451764 
A 10.807788 12.714826 9.394064 
A 11.304401 6.067894 9.909546 
A 5.595509 6.796488 2.563617 
A 3.308783 10.707710 4.490252 
A 7.618561 12.615046 1.691998 
A 14.611016 11.020626 12.953856 
A 3.231553 12.705308 18.111242 
A 15.687138 3.370990 19.113639 
A 19.837392 7.051890 1.117144 
A 15.839119 8.076669 4.579798 
A 12.669748 0.452119 18.763258 
A 14.080654 13.551277 16.305859 
A 12.581726 8.410164 7.509597 
A 13.827358 8.499346 13.272816 
A 13.265951 16.873781 1.803319 
A 6.604470 7.008294 4.286026 
A 15.577581 12.397783 9.545991 
A 19.467865 16.414337 15.768816 
A 6.477269 13.508756 10.405214 
A 8.546786 11.638609 14.667915 
A 2.484604 11.651253 13.673897 
A 15.487858 18.215140 11.062072 
A 1.582831 15.748141 13.424731 
A 15.551719 17.743462 14.359838 
A 5.432255 10.971368 16.226393 
A 15.182350 8.974598 11.803354 
A 8.045532 13.785967 0.133480 
A 6.184293 19.407710 5.384077 
A 10.190500 11.733463 4.309235 
A 5.309507 4.656627 8.630318 
A 6.280401 6.920553 9.034189 
A 1.091382 9.165256 3.994695 
A 17.987627 11.784877 19.330751 
A 11.223745 4.134164 10.093633 
A 4.254028 7.227533 7.309660 
A 17.736980 5.429926 0.764800 
A 13.591809 17.418423 9.944141 
A 4.922345 9.850596 18.970547 
A 17.979041 3.635457 7.248640 
A 12.715258 14.755715 2.675093 
A 17.486594 3.524560 14.298446 
A 13.522823 3.803191 18.952291 
A 8.337804 1.905509 19.929184 
A 11.795506 7.076988 2.931524 
A 3.372172 9.855971 10.176418 
A 14.046967 7.375602 1.743739 
A 7.055783 13.105372 7.956105 
A 15.240917 3.907103 0.936808 
A 11.769969 6.833283 11.636737 
A 16.130306 2.055477 6.400497 
A 13.211962 4.843785 10.811390 
A 12.949159 14.583952 4.503970 
100
timestep 8  
A 1.375241 13.682545 2.532901 
A 5.000121 18.225041 4.688893 
A 17.377466 3.063695 11.522711 
A 2.204860 17.083946 9.878378 
A 5.990216 6.600923 6.465445 
A 19.111902 2.200055 13.907200 
A 18.470488 5.090754 5.526599 
A 0.297585 1.511400 2.091472 
A 11.372423 16.310862 16.662694 
A 9.921990 3.536817 19.942809 
A 14.589176 9.955285 18.751502 
A 6.923135 9.469806 17.281005 
A 16.891454 14.664568 7.393043 
A 14.869795 6.988653 10.775859 
A 12.518240 15.109336 0.334142 
A 18.666808 13.034843 16.598289 
A 7.447038 12.024139 16.405072 
A 12.047552 3.199057 6.555434 
A 17.179911 2.766921 3.637960 
A 3.188523 5.233347 18.515613 
A 0.384170 10.725250 13.187046 
A 4.057397 4.150675 16.410710 
A 2.802687 4.763851 6.049711 
A 17.491982 7.741954 19.027524 
A 15.667662 5.113752 2.594572 
A 19.461179 4.039884 18.330030 
A 12.789310 12.666661 3.770909 
A 16.175662 4.349165 16.411337 
A 5.341797 19.584816 1.998368 
A 6.549889 11.698696 9.399220 
A 15.898574 7.209464 15.345682 
A 1.620754 7.072251 4.105872 
A 18.477174 5.869618 10.674037 
A 2.968788 6.570682 16.648357 
A 8.786163 9.042775 1.913039 
A 12.441084 17.298311 12.712247 
A 15.083689 15.994284 11.090285 
A 19.352553 18.350169 11.292675 
A 16.025721 8.760378 14.025002 
A 15.937506 11.054346 19.884754 
A 6.879242 19.426252 17.013666 
A 8.685006 8.892092 9.397150 
A 17.897685 19.653546 6.455448 
A 13.724182 3.108242 16.798472 
A 8.473748 18.282802 19.051990 
A 6.803226 1.814046 8.664862 
A 10.329619 9.912307 16.143385 
A 1.867197 1.979797 14.451764 
A 10.808248 12.712171 9.394024 
A 11.292223 6.088275 9.871664 
A 5.571834 6.791541 2.522873 
A 3.308783 10.707710 4.490252 
A 7.609820 12.591075 1.723904 
A 14.610013 11.024485 12.955924 
A 3.231553 12.705308 18.111242 
A 15.698092 3.365702 19.103021 
A 19.837392 7.051890 1.117144 
A 15.839119 8.076669 4.579798 
A 12.669748 0.452119 18.763258 
A 14.080654 13.551277 16.305859 
A 12.583669 8.411480 7.510781 
A 13.808831 8.494429 13.284488 
A 13.297281 16.971388 1.808829 
A 6.629171 7.013860 4.322936 
A 15.577581 12.397783 9.545991 
A 19.467865 16.414337 15.768816 
A 6.474276 13.546489 10.432034 
A 8.554639 11.636129 14.655821 
A 2.563555 11.686059 13.692197 
A 15.508637 18.246391 11.071397 
A 1.582675 15.747732 13.424897 
A 15.551719 17.743462 14.359838 
A 5.367218 11.025607 16.185150 
A 15.195316 8.981994 11.786533 
A 8.054273 13.809938 0.101574 
A 6.184293 19.407710 5.384077 
A 10.190500 11.733463 4.309235 
A 5.308141 4.653442 8.629750 
A 6.281767 6.923738 9.034758 
A 1.088608 9.176223 3.994113 
A 17.994018 11.787210 19.329156 
A 11.212980 4.096114 10.091715 
A 4.234414 7.234577 7.319320 
A 17.736980 5.429926 0.764800 
A 13.518562 17.465878 9.890788 
A 4.922345 9.850596 18.970547 
A 17.977663 3.631381 7.253467 
A 12.702062 14.693455 2.730327 
A 17.476766 3.532569 14.300812 
A 13.508484 3.828102 19.024249 
A 8.336764 1.898427 19.929954 
A 11.795506 7.076988 2.931524 
A 15.564560 12.251108 13.697387 
A 14.046967 7.375602 1.743739 
A 7.062606 13.119054 7.934541 
A 15.226731 3.877261 0.902238 
A 11.778172 6.852507 11.671825 
A 16.130306 2.055477 6.400497 
A 13.226703 4.842229 10.816102 
A 12.954073 14.623133 4.533808 
100
timestep 9  
A 1.375241 13.682545 2.532901 
A 12.798198 15.830879 1.164566 
A 17.377466 3.063695 11.522711 
A 2.204860 17.083946 9.878378 
A 6.009894 6.592654 6.459696 
A 19.122585 2.191348 13.904628 
A 18.471916 5.095254 5.521700 
A 0.297585 1.511400 2.091472 
A 11.372423 16.310862 16.662694 
A 9.927552 3.542502 19.942862 
A 14.577222 9.946009 18.741479 
A 6.980316 9.408260 17.323142 
A 16.891454 14.664568 7.393043 
A 14.868786 6.981631 10.772062 
A 12.498434 15.078606 0.257310 
A 18.666808 13.034843 16.598289 
A 7.447240 12.034169 16.417590 
A 12.047552 3.199057 6.555434 
A 17.179911 2.766921 3.637960 
A 3.189025 5.229347 18.522038 
A 0.304800 10.690259 13.168650 
A 4.057601 4.150417 16.410225 
A 2.802687 4.763851 6.049711 
A 17.491982 7.741954 19.027524 
A 15.679561 5.148180 2.642370 
A 19.461179 4.039884 18.330030 
A 12.785839 12.620811 3.756348 
A 16.175662 4.349165 16.411337 
A 5.341797 19.584816 1.998368 
A 6.545789 11.645344 9.394260 
A 15.897301 7.189953 15.362579 
A 1.623780 7.060288 4.106507 
A 18.477174 5.869618 10.674037 
A 2.968531 6.575317 16.642878 
A 8.786163 9.042775 1.913039 
A 12.441084 17.298311 12.712247 
A 15.136302 15.914618 11.134531 
A 19.352553 18.350169 11.292675 
A 16.035196 8.779897 14.015305 
A 15.942553 11.061601 19.896569 
A 6.879242 19.426252 17.013666 
A 8.685006 8.892092 9.397150 
A 17.898086 19.652993 6.454439 
A 13.730143 3.084506 16.724232 
A 8.473748 18.282802 19.051990 