40
timestep 0  
A 18.381804 31.986030 28.906073 
A 15.979422 38.182833 10.973185 
A 25.786889 32.448921 34.726175 
A 34.710700 2.805465 19.135831 
A 8.924553 27.535634 20.277064 
A 37.081314 34.568126 30.486587 
A 6.422860 33.544175 2.825664 
A 36.400372 21.229344 37.787990 
A 29.874483 25.662222 0.323081 
A 5.987406 38.877955 25.272136 
A 30.691410 37.927224 20.429865 
A 27.172069 26.037315 23.954717 
A 7.954958 22.886703 32.460817 
A 24.488173 34.247927 23.524804 
A 10.113001 21.377254 28.149725 
A 34.965937 20.563171 16.251407 
A 12.255906 21.970740 5.832272 
A 21.671074 32.692327 4.290276 
A 24.300563 7.962813 4.592711 
A 24.389689 35.341358 4.446922 
A 2.012328 21.282403 19.809852 
A 4.430594 27.151582 18.690418 
A 37.536202 17.926947 39.934151 
A 24.095988 25.314230 29.763092 
A 23.424465 33.699086 9.879813 
A 37.024857 39.822003 5.052919 
A 31.540581 18.391949 30.999132 
A 31.595343 25.591523 24.504088 
A 0.836029 8.665295 38.758748 
A 27.509608 30.854107 12.073822 
A 30.231526 23.782623 9.868242 
A 2.317939 14.330265 11.909366 
A 9.882360 18.646630 34.720922 
A 10.972480 12.432764 0.044264 
A 21.492721 6.214880 2.939022 
A 3.928908 25.704900 33.281657 
A 29.076098 2.577676 32.796593 
A 39.630618 2.220225 24.628596 
A 26.533043 20.530588 14.760462 
A 6.827514 16.173883 31.480212 
40
timestep 1  
A 19.887834 32.833242 27.683321 
A 16.803258 36.436583 13.843555 
A 27.543816 33.316122 35.495299 
A 33.269648 3.115617 19.545614 
A 9.165480 29.371212 19.715338 
A 36.628710 36.591083 34.326684 
A 5.296781 32.074137 1.750818 
A 36.952339 18.328286 35.900258 
A 29.869417 25.739840 0.207869 
A 5.577553 39.020517 24.793710 
A 31.704787 37.140846 21.347249 
A 28.077379 26.655273 24.780364 
A 5.624754 23.061947 33.426166 
A 24.662924 32.814082 23.496851 
A 9.029550 23.970205 28.504159 
A 34.476398 20.938600 17.134720 
A 12.943984 23.456764 5.039786 
A 21.015896 28.069080 5.739788 
A 23.868017 6.555439 4.452761 
A 26.964924 35.161486 3.569544 
A 38.513787 21.386849 21.686500 
A 5.496615 25.944918 20.352386 
A 37.929757 19.401094 37.679577 
A 22.303621 25.046680 26.569533 
A 24.427802 35.479897 9.321428 
A 39.268991 0.038755 4.634577 
A 27.587878 21.143184 28.505720 
A 33.989406 25.270958 24.551732 
A 2.204554 6.973237 1.473680 
A 26.598033 26.895871 13.095604 
A 28.841532 24.686223 12.001556 
A 3.683065 14.736949 10.178661 
A 11.100629 19.934126 34.475071 
A 15.389944 14.688964 2.595950 
A 25.213996 7.726730 2.062666 
A 2.810900 27.893666 30.904856 
A 26.436632 1.690656 34.439388 
A 37.392862 2.668077 21.000726 
A 26.625879 20.490197 13.093817 
A 3.272453 12.413702 31.165390 
40
timestep 2  
A 21.393864 33.680454 26.460568 
A 17.627095 34.690332 16.713924 
A 29.300742 34.183323 36.264424 
A 31.828596 3.425768 19.955397 
A 9.406408 31.206790 19.153612 
A 36.176107 38.614041 38.166782 
A 4.170702 30.604098 0.675973 
A 37.504007 15.426898 34.011980 
A 29.864352 25.817458 0.092657 
A 5.167700 39.163080 24.315285 
A 32.718163 36.354468 22.264633 
A 28.982688 27.273231 25.606012 
A 3.294551 23.237191 34.391516 
A 24.837674 31.380237 23.468897 
A 7.946098 26.563156 28.858594 
A 33.986859 21.314029 18.018032 
A 13.632062 24.942788 4.247299 
A 20.360718 23.445834 7.189299 
A 23.435471 5.148065 4.312812 
A 29.540159 34.981614 2.692166 
A 35.015245 21.491294 23.563148 
A 6.562637 24.738254 22.014355 
A 38.323613 20.875571 35.425548 
A 20.511254 24.779131 23.375975 
A 25.431138 37.260708 8.763043 
A 1.513125 0.255506 4.216235 
A 23.635174 23.894419 26.012307 
A 36.383469 24.950393 24.599376 
A 3.573078 5.281178 4.188612 
A 25.686459 22.937636 14.117387 
A 27.451538 25.589823 14.134869 
A 5.048192 15.143633 8.447957 
A 12.318899 21.221622 34.229219 
A 19.807407 16.945165 5.147635 
A 28.935271 9.238581 1.186311 
A 1.692892 30.082432 28.528055 
A 23.797167 0.803636 36.082184 
A 35.155106 3.115930 17.372855 
A 26.718714 20.449807 11.427173 
A 39.717393 8.653522 30.850567 
40
timestep 3  
A 22.899895 34.527665 25.237816 
A 18.450931 32.944082 19.584293 
A 31.057669 35.050525 37.033548 
A 30.387545 3.735920 20.365180 
A 9.647335 33.042369 18.591887 
A 35.723503 0.636998 2.006879 
A 3.044623 29.134059 39.601128 
A 38.055675 12.525511 32.123702 
A 29.859286 25.895076 39.977445 
A 4.757847 39.305642 23.836860 
A 33.731540 35.568090 23.182017 
A 29.887998 27.891189 26.431659 
A 0.964347 23.412435 35.356866 
A 25.012425 29.946392 23.440944 
A 6.862646 29.156106 29.213028 
A 33.497321 21.689458 18.901345 
A 14.320140 26.428812 3.454812 
A 19.705540 18.822587 8.638811 
A 23.002925 3.740692 4.172863 
A 32.115395 34.801741 1.814788 
A 31.516704 21.595740 25.439796 
A 7.628659 23.531591 23.676324 
A 38.717468 22.350047 33.171520 
A 18.718886 24.511582 20.182416 
A 26.434474 39.041519 8.204659 
A 3.757259 0.472258 3.797893 
A 19.682470 26.645653 23.518895 
A 38.777532 24.629828 24.647020 
A 4.941602 3.589120 6.903543 
A 24.774885 18.979400 15.139169 
A 26.061544 26.493423 16.268182 
A 6.413318 15.550316 6.717252 
A 13.537169 22.509118 33.983368 
A 24.224870 19.201366 7.699321 
A 32.656545 10.750431 0.309956 
A 0.574883 32.271199 26.151254 
A 21.157702 39.916616 37.724980 
A 32.917350 3.563783 13.744985 
A 26.811550 20.409417 9.760528 
A 36.162332 4.893341 30.535745 
40
timestep 4  
A 24.405925 35.374877 24.015064 
A 19.274767 31.197832 22.454662 
A 32.814596 35.917726 37.802672 
A 28.946493 4.046072 20.774963 
A 9.888262 34.877947 18.030161 
A 35.270900 2.659955 5.846977 
A 1.918544 27.664020 38.526283 
A 38.607344 9.624124 30.235424 
A 29.854220 25.972695 39.862234 
A 4.347993 39.448204 23.358434 
A 34.744917 34.781712 24.099401 
A 30.793308 28.509147 27.257306 
A 38.634143 23.587679 36.322215 
A 25.187176 28.512547 23.412990 
A 5.779194 31.749057 29.567462 
A 33.007782 22.064888 19.784658 
A 15.008218 27.914836 2.662326 
A 19.050362 14.199341 10.088322 
A 22.570379 2.333318 4.032913 
A 34.690630 34.621869 0.937410 
A 28.018163 21.700185 27.316444 
A 8.694681 22.324927 25.338292 
A 39.111323 23.824524 30.917491 
A 16.926519 24.244032 16.988858 
A 27.437811 0.822330 7.646274 
A 6.001393 0.689009 3.379551 
A 15.729766 29.396888 21.025483 
A 1.171595 24.309263 24.694663 
A 6.310127 1.897061 9.618475 
A 23.863310 15.021164 16.160952 
A 24.671550 27.397023 18.401495 
A 7.778444 15.957000 4.986548 
A 14.755439 23.796613 33.737517 
A 28.642333 21.457567 10.251007 
A 36.377820 12.262281 39.433600 
A 39.456875 34.459965 23.774453 
A 18.518236 39.029596 39.367775 
A 30.679594 4.011635 10.117114 
A 26.904385 20.369027 8.093883 
A 32.607271 1.133161 30.220922 
40
timestep 5  
A 25.911955 36.222088 22.792312 
A 20.098603 29.451582 25.325031 
A 34.571522 36.784927 38.571796 
A 27.505441 4.356223 21.184746 
A 10.129189 36.713525 17.468435 
A 34.818296 4.682913 9.687074 
A 0.792465 26.193981 37.451438 
A 39.159012 6.722737 28.347146 
A 29.849154 26.050313 39.747022 
A 3.938140 39.590766 22.880009 
A 35.758293 33.995334 25.016785 
A 31.698618 29.127105 28.082953 
A 36.303939 23.762922 37.287565 
A 25.361927 27.078701 23.385037 
A 4.695743 34.342007 29.921896 
A 32.518243 22.440317 20.667970 
A 15.696296 29.400860 1.869839 
A 18.395184 9.576094 11.537834 
A 22.137833 0.925944 3.892964 
A 37.265865 34.441996 0.060032 
A 24.519621 21.804631 29.193091 
A 9.760703 21.118263 27.000261 
A 39.505178 25.299001 28.663462 
A 15.134152 23.976483 13.795299 
A 28.441147 2.603142 7.087889 
A 8.245527 0.905760 2.961209 
A 11.777063 32.148123 18.532070 
A 3.565658 23.988698 24.742307 
A 7.678651 0.205003 12.333407 
A 22.951736 11.062928 17.182734 
A 23.281556 28.300623 20.534809 
A 9.143570 16.363683 3.255843 
A 15.973709 25.084109 33.491666 
A 33.059796 23.713767 12.802692 
A 0.099095 13.774132 38.557245 
A 38.338867 36.648731 21.397651 
A 15.878771 38.142576 1.010571 
A 28.441838 4.459488 6.489244 
A 26.997220 20.328636 6.427239 
A 29.052210 37.372981 29.906100 
40
timestep 6  
A 27.417985 37.069300 21.569560 
A 20.922440 27.705331 28.195401 
A 36.328449 37.652129 39.340921 
A 26.064389 4.666375 21.594529 
A 10.370117 38.549103 16.906709 
A 34.365693 6.705870 13.527172 
A 39.666386 24.723942 36.376593 
A 39.710680 3.821350 26.458868 
A 29.844088 26.127931 39.631810 
A 3.528287 39.733328 22.401584 
A 36.771670 33.208956 25.934169 
A 32.603927 29.745063 28.908600 
A 33.973736 23.938166 38.252915 
A 25.536678 25.644856 23.357083 
A 3.612291 36.934958 30.276331 
A 32.028704 22.815746 21.551283 
A 16.384374 30.886885 1.077352 
A 17.740005 4.952848 12.987345 
A 21.705287 39.518570 3.753015 
A 39.841100 34.262124 39.182654 
A 21.021080 21.909077 31.069739 
A 10.826724 19.911600 28.662230 
A 39.899033 26.773477 26.409434 
A 13.341785 23.708934 10.601741 
A 29.444482 4.381903 6.530166 
A 10.489662 1.122512 2.542867 
A 7.824359 34.899358 16.038658 
A 5.959721 23.668133 24.789951 
A 9.047175 38.512944 15.048339 
A 22.040161 7.104692 18.204517 
A 21.891562 29.204224 22.668122 
A 10.508697 16.770367 1.525138 
A 17.191978 26.371605 33.245814 
A 37.477259 25.969968 15.354378 
A 3.820370 15.285982 37.680889 
A 37.220859 38.837497 19.020850 
A 13.239306 37.255556 2.653367 
A 26.204082 4.909390 2.860712 
A 27.090056 20.288246 4.760594 
A 25.497150 33.612800 29.591277 
40
timestep 7  
A 28.924015 37.916512 20.346808 
A 21.746276 25.959081 31.065770 
A 38.085375 38.519330 0.110045 
A 24.623337 4.976527 22.004312 
A 10.611470 0.384693 16.345583 
A 33.913089 8.728827 17.367269 
A 38.540307 23.253904 35.301748 
A 0.262348 0.919963 24.570590 
A 29.839022 26.205549 39.516598 
A 3.118434 39.875891 21.923159 
A 37.785046 32.422578 26.851553 
A 33.509237 30.363021 29.734247 
A 31.643532 24.113410 39.218264 
A 25.711429 24.211011 23.329130 
A 2.528839 39.527908 30.630765 
A 31.539165 23.191176 22.434595 
A 17.072452 32.372909 0.284866 
A 17.084827 0.329601 14.436857 
A 21.272741 38.111196 3.613066 
A 2.416335 34.082252 38.305275 
A 17.522539 22.013522 32.946387 
A 11.892746 18.704936 30.324198 
A 0.292888 28.247954 24.155405 
A 11.549418 23.441385 7.408182 
A 30.447818 6.160665 5.972442 
A 12.733796 1.339263 2.124525 
A 3.871655 37.650592 13.545245 
A 8.353784 23.347568 24.837594 
A 10.415273 36.820874 17.762671 
A 21.128587 3.146456 19.226300 
A 20.501568 30.107824 24.801435 
A 11.873823 17.177050 39.794434 
A 18.410248 27.659101 32.999963 
A 1.894722 28.226169 17.906063 
A 7.541644 16.797832 36.804534 
A 36.102851 1.026264 16.644049 
A 10.599841 36.368536 4.296162 
A 23.966327 5.359293 39.232181 
A 27.182891 20.247856 3.093949 
A 21.942089 29.852620 29.276455 
40
timestep 8  
A 30.430045 38.763723 19.124056 
A 22.570112 24.212831 33.936139 
A 39.842302 39.386532 0.879169 
A 23.182285 5.286679 22.414095 
A 10.852824 2.220283 15.784456 
A 33.460486 10.751785 21.207366 
A 37.414228 21.783865 34.226903 
A 0.814016 38.018575 22.682312 
A 29.833956 26.283167 39.401386 
A 2.708581 0.018453 21.444733 
A 38.798423 31.636200 27.768938 
A 34.414547 30.980979 30.559894 
A 29.313328 24.288654 0.183614 
A 25.886180 22.777166 23.301176 
A 1.445388 2.120859 30.985199 
A 31.049626 23.566605 23.317908 
A 17.760530 33.858933 39.492379 
A 16.429649 35.706355 15.886368 
A 20.840194 36.703822 3.473116 
A 4.991571 33.902379 37.427897 
A 14.023997 22.117968 34.823035 
A 12.958768 17.498273 31.986167 
A 0.686744 29.722430 21.901377 
A 9.757051 23.173835 4.214624 
A 31.451153 7.939426 5.414718 
A 14.977930 1.556014 1.706183 
A 39.918951 0.401827 11.051833 
A 10.747847 23.027003 24.885238 
A 11.783371 35.128804 20.477004 
A 20.217012 39.188220 20.248082 
A 19.111574 31.011424 26.934749 
A 13.238949 17.583734 38.063729 
A 19.628518 28.946597 32.754112 
A 6.312185 30.482370 20.457749 
A 11.262919 18.309683 35.928178 
A 34.984843 3.215030 14.267248 
A 7.960375 35.481516 5.938958 
A 21.728572 5.809195 35.603649 
A 27.275727 20.207465 1.427305 
A 18.387028 26.092440 28.961632 
40
timestep 9  
A 31.936075 39.610935 17.901304 
A 23.393948 22.466581 36.806508 
A 1.599229 0.253733 1.648293 
A 21.741234 5.596830 22.823878 
A 11.094178 4.055873 15.223329 
A 33.007882 12.774742 25.047464 
A 36.288149 20.313826 33.152057 
A 1.365684 35.117188 20.794034 
A 29.829110 26.361628 39.285843 
A 2.298728 0.161015 20.966308 
A 39.811799 30.849822 28.686322 
A 35.319857 31.598937 31.385541 
A 26.982905 24.463055 1.149294 
A 26.060930 21.343321 23.273223 
A 0.361936 4.713809 31.339633 
A 30.560087 23.942034 24.201220 
A 18.448608 35.344957 38.699892 
A 15.774471 31.083108 17.335880 
A 20.407648 35.296449 3.333167 
A 7.566806 33.722507 36.550519 
A 10.525456 22.222413 36.699683 
A 14.024790 16.291609 33.648136 
A 1.080599 31.196907 19.647348 
A 7.964683 22.906286 1.021066 
A 32.454489 9.718188 4.856995 
A 17.222064 1.772766 1.287840 
A 35.966248 3.153062 8.558420 
A 13.141910 22.706438 24.932882 
A 13.151469 33.436733 23.191337 
A 19.305438 35.229984 21.269865 
A 17.721580 31.915024 29.068062 
A 14.604076 17.990417 36.333025 
A 20.846788 30.234093 32.508261 
A 10.729648 32.738570 23.009434 
A 14.984194 19.821533 35.051823 
A 33.866835 5.403796 11.890446 
A 5.320910 34.594496 7.581754 
A 19.490816 6.259097 31.975118 
A 27.368562 20.167075 39.760660 
A 14.831968 22.332259 28.646809 
40
timestep 10  
A 33.442105 0.458146 16.678552 
A 24.217785 20.720330 39.676878 
A 3.356155 1.120934 2.417418 
A 20.300182 5.906982 23.233661 
A 11.335531 5.891463 14.662203 
A 32.555279 14.797700 28.887561 
A 35.162070 18.843787 32.077212 
A 1.917352 32.215801 18.905756 
A 29.824264 26.440088 39.170301 
A 1.888874 0.303577 20.487883 
A 0.825176 30.063444 29.603706 
A 36.225166 32.216895 32.211188 
A 24.652481 24.637457 2.114974 
A 26.235681 19.909475 23.245269 
A 39.278484 7.306760 31.694067 
A 30.070548 24.317463 25.084533 
A 19.136686 36.830981 37.907406 
A 15.119293 26.459862 18.785392 
A 19.975102 33.889075 3.193218 
A 10.142041 33.542635 35.673141 
A 7.026915 22.326859 38.576331 
A 15.090812 15.084945 35.310105 
A 1.474454 32.671383 17.393319 
A 6.172316 22.638737 37.827507 
A 33.457824 11.496950 4.299271 
A 19.466198 1.989517 0.869498 
A 32.013544 5.904296 6.065008 
A 15.535973 22.385873 24.980526 
A 14.519567 31.744663 25.905669 
A 18.393863 31.271749 22.291647 
A 16.331586 32.818624 31.201375 
A 15.969073 18.396480 34.602755 
A 22.065058 31.521589 32.262409 
A 15.147111 34.994771 25.561120 
A 18.705597 21.334004 34.175033 
A 32.748827 7.592562 9.513645 
A 2.681445 33.707476 9.224549 
A 17.253061 6.708999 28.346587 
A 27.461398 20.126685 38.094015 
A 11.276907 18.572079 28.331987 
40
timestep 11  
A 34.948135 1.305358 15.455800 
A 25.041621 18.974080 2.547247 
A 5.113082 1.988136 3.186542 
A 18.859130 6.217134 23.643444 
A 11.576885 7.727053 14.101076 
A 32.102675 16.820657 32.727659 
A 34.035991 17.373748 31.002367 
A 2.470839 29.312543 17.023689 
A 29.819418 26.518549 39.054759 
A 1.479021 0.446139 20.009457 
A 1.838552 29.277066 30.521090 
A 37.130476 32.834853 33.036835 
A 22.322058 24.811858 3.080654 
A 26.410432 18.475630 23.217316 
A 38.195032 9.899711 32.048502 
A 29.581010 24.692893 25.967845 
A 19.824764 38.317005 37.114919 
A 14.464115 21.836615 20.234903 
A 19.542556 32.481701 3.053269 
A 12.717276 33.362762 34.795763 
A 3.542320 22.426215 0.465199 
A 16.156833 13.878282 36.972073 
A 1.866491 34.147730 15.133081 
A 4.366003 22.376277 34.621728 
A 34.461160 13.275711 3.741547 
A 21.710332 2.206269 0.451156 
A 28.060840 8.655531 3.571595 
A 17.930036 22.065308 25.028169 
A 15.887665 30.052593 28.620002 
A 17.482289 27.313513 23.313430 
A 14.941592 33.722224 33.334688 
A 17.334070 18.802543 32.872484 
A 23.283327 32.809085 32.016558 
A 19.564575 37.250972 28.112806 
A 22.427001 22.846476 33.298243 
A 31.630819 9.781329 7.136844 
A 0.041980 32.820456 10.867345 
A 15.015306 7.158901 24.718055 
A 27.554233 20.086295 36.427370 
A 7.721846 14.811898 28.017164 
40
timestep 12  
A 36.454165 2.152570 14.233048 
A 25.865457 17.227830 5.417616 
A 6.870008 2.855337 3.955666 
A 17.418078 6.527286 24.053227 
A 11.818239 9.562643 13.539949 
A 31.650072 18.843614 36.567756 
A 32.909912 15.903709 29.927522 
A 3.024325 26.409286 15.141621 
A 29.814572 26.597009 38.939216 
A 1.069168 0.588701 19.531032 
A 2.851929 28.490688 31.438474 
A 38.035786 33.452811 33.862482 
A 19.991634 24.986260 4.046334 
A 26.585183 17.041785 23.189362 
A 37.111581 12.492661 32.402936 
A 29.091471 25.068322 26.851158 
A 20.512842 39.803029 36.322432 
A 13.808937 17.213369 21.684415 
A 19.110010 31.074327 2.913319 
A 15.292512 33.182890 33.918385 
A 0.057725 22.525571 2.354067 
A 17.222855 12.671618 38.634042 
A 2.258527 35.624077 12.872842 
A 2.559689 22.113817 31.415950 
A 35.464495 15.054473 3.183824 
A 23.954466 2.423020 0.032814 
A 24.108136 11.406766 1.078183 
A 20.324099 21.744743 25.075813 
A 17.255763 28.360523 31.334335 
A 16.570714 23.355277 24.335212 
A 13.551598 34.625824 35.468002 
A 18.699068 19.208606 31.142214 
A 24.501597 34.096580 31.770707 
A 23.982038 39.507173 30.664491 
A 26.148404 24.358947 32.421453 
A 30.512810 11.970095 4.760043 
A 37.402514 31.933436 12.510141 
A 12.777550 7.608804 21.089524 
A 27.647069 20.045904 34.760726 
A 4.166785 11.051718 27.702342 
40
timestep 13  
A 37.960195 2.999781 13.010296 
A 26.689294 15.481579 8.287985 
A 8.626935 3.722538 4.724791 
A 15.977026 6.837437 24.463010 
A 12.059592 11.398232 12.978823 
A 31.197468 20.866572 0.407854 
A 31.783833 14.433670 28.852677 
A 3.577812 23.506028 13.259553 
A 29.809726 26.675470 38.823674 
A 0.659315 0.731264 19.052607 
A 3.865305 27.704310 32.355858 
A 38.941096 34.070769 34.688129 
A 17.661210 25.160661 5.012014 
A 26.759934 15.607940 23.161409 
A 36.028129 15.085612 32.757370 
A 28.601932 25.443751 27.734471 
A 21.200920 1.289053 35.529946 
A 13.153759 12.590122 23.133926 
A 18.677464 29.666953 2.773370 
A 17.867747 33.003018 33.041007 
A 36.573130 22.624927 4.242935 
A 18.288877 11.464954 0.296011 
A 2.650564 37.100425 10.612603 
A 0.753376 21.851358 28.210171 
A 36.467831 16.833235 2.626100 
A 26.198601 2.639771 39.614472 
A 20.155433 14.158000 38.584770 
A 22.718162 21.424178 25.123457 
A 18.623860 26.668453 34.048668 
A 15.659140 19.397041 25.356995 
A 12.161604 35.529424 37.601315 
A 20.064065 19.614668 29.411944 
A 25.719867 35.384076 31.524856 
A 28.399501 1.763373 33.216177 
A 29.869808 25.871418 31.544663 
A 29.394802 14.158861 2.383242 
A 34.763049 31.046416 14.152936 
A 10.539795 8.058706 17.460992 
A 27.739904 20.005514 33.094081 
A 0.611725 7.291538 27.387519 
40
timestep 14  
A 39.466225 3.846993 11.787544 
A 27.513130 13.735329 11.158355 
A 10.383861 4.589740 5.493915 
A 14.535974 7.147589 24.872793 
A 12.300946 13.233822 12.417696 
A 30.744865 22.889529 4.247951 
A 30.657754 12.963632 27.777832 
A 4.131298 20.602770 11.377485 
A 29.804880 26.753930 38.708131 
A 0.249462 0.873826 18.574181 
A 4.878682 26.917932 33.273242 
A 39.846405 34.688727 35.513776 
A 15.330787 25.335063 5.977694 
A 26.934685 14.174095 23.133455 
A 34.944677 17.678562 33.111804 
A 28.112393 25.819180 28.617783 
A 21.888998 2.775077 34.737459 
A 12.498581 7.966876 24.583438 
A 18.244918 28.259579 2.633421 
A 20.442982 32.823145 32.163629 
A 33.088535 22.724283 6.131803 
A 19.354899 10.258291 1.957979 
A 3.042600 38.576772 8.352365 
A 38.947062 21.588898 25.004392 
A 37.471166 18.611996 2.068376 
A 28.442735 2.856523 39.196130 
A 16.202729 16.909235 36.091358 
A 25.112225 21.103613 25.171100 
A 19.991958 24.976383 36.763000 
A 14.747566 15.438805 26.378777 
A 10.771610 36.433025 39.734628 
A 21.429063 20.020731 27.681674 
A 26.938137 36.671572 31.279004 
A 32.816964 4.019574 35.767862 
A 33.591212 27.383889 30.667874 
A 28.276794 16.347627 0.006440 
A 32.123584 30.159396 15.795732 
A 8.302039 8.508608 13.832461 
A 27.832739 19.965124 31.427436 
A 37.056664 3.531357 27.072697 
40
timestep 15  
A 0.972255 4.694204 10.564792 
A 28.336966 11.989079 14.028724 
A 12.140788 5.456941 6.263039 
A 13.095752 7.457407 25.282694 
A 12.542300 15.069412 11.856569 
A 30.292261 24.912486 8.088048 
A 29.531675 11.493593 26.702987 
A 4.684785 17.699512 9.495417 
A 29.800034 26.832391 38.592589 
A 39.839609 1.016388 18.095756 
A 5.892059 26.131554 34.190626 
A 0.751715 35.306685 36.339423 
A 13.000363 25.509464 6.943374 
A 27.109435 12.740249 23.105502 
A 33.861226 20.271513 33.466239 
A 27.622854 26.194610 29.501096 
A 22.577076 4.261101 33.944972 
A 11.842573 3.343963 26.032831 
A 17.812372 26.852205 2.493471 
A 23.018217 32.643273 31.286251 
A 29.603940 22.823639 8.020671 
A 20.420921 9.051627 3.619948 
A 3.434637 0.053119 6.092126 
A 37.140749 21.326438 21.798614 
A 38.474502 20.390758 1.510652 
A 30.686869 3.073274 38.777788 
A 12.250025 19.660470 33.597945 
A 27.506288 20.783048 25.218744 
A 21.360056 23.284312 39.477333 
A 13.835991 11.480569 27.400560 
A 9.381616 37.336625 1.867942 
A 22.794060 20.426794 25.951404 
A 28.156407 37.959068 31.033153 
A 37.234427 6.275775 38.319548 
A 37.312615 28.896360 29.791084 
A 27.158786 18.536394 37.629639 
A 29.484118 29.272376 17.438528 
A 6.064284 8.958510 10.203929 
A 27.925575 19.924733 29.760792 
A 33.501603 39.771177 26.757874 
40
timestep 16  
A 2.478285 5.541416 9.342040 
A 29.160802 10.242829 16.899093 
A 13.897715 6.324142 7.032163 
A 11.655530 7.767225 25.692595 
A 12.783654 16.905002 11.295442 
A 29.839953 26.936340 11.928175 
A 28.405596 10.023554 25.628142 
A 5.238272 14.796254 7.613349 
A 29.795188 26.910851 38.477047 
A 39.429756 1.158950 17.617331 
A 6.905435 25.345176 35.108010 
A 1.657025 35.924643 37.165070 
A 10.669940 25.683866 7.909054 
A 27.284186 11.306404 23.077548 
A 32.777774 22.864463 33.820673 
A 27.133315 26.570039 30.384408 
A 23.265154 5.747125 33.152486 
A 11.186565 38.721050 27.482225 
A 17.379826 25.444832 2.353522 
A 25.593453 32.463400 30.408873 
A 26.119049 22.922098 9.909510 
A 21.486942 7.844963 5.281917 
A 3.826674 1.529466 3.831887 
A 35.334436 21.063978 18.592835 
A 39.477837 22.169520 0.952929 
A 32.931003 3.290025 38.359446 
A 8.297322 22.411704 31.104533 
A 29.900351 20.462483 25.266388 
A 22.728154 21.592242 2.191666 
A 12.924417 7.522333 28.422343 
A 7.991622 38.240225 4.001255 
A 24.159058 20.832857 24.221133 
A 29.374676 39.246564 30.787302 
A 1.651890 8.531976 0.871233 
A 1.034019 30.408832 28.914294 
A 26.040778 20.725160 35.252838 
A 26.844653 28.385356 19.081323 
A 3.826529 9.408413 6.575398 
A 28.018410 19.884343 28.094147 
A 29.946543 36.010997 26.443052 
40
timestep 17  
A 3.984315 6.388628 8.119288 
A 29.984639 8.496578 19.769462 
A 15.654641 7.191344 7.801288 
A 10.215308 8.077043 26.102496 
A 13.025007 18.740592 10.734316 
A 29.387645 28.960194 15.768301 
A 27.279517 8.553515 24.553296 
A 5.791758 11.892997 5.731282 
A 29.790342 26.989312 38.361504 
A 39.019902 1.301512 17.138905 
A 7.918812 24.558798 36.025394 
A 2.562335 36.542601 37.990717 
A 8.339516 25.858267 8.874734 
A 27.458937 9.872559 23.049595 
A 31.694322 25.457414 34.175107 
A 26.643776 26.945468 31.267721 
A 23.953232 7.233149 32.359999 
A 10.530557 34.098137 28.931619 
A 16.947280 24.037458 2.213573 
A 28.168688 32.283528 29.531495 
A 22.634159 23.020558 11.798349 
A 22.552964 6.638300 6.943885 
A 4.218710 3.005813 1.571649 
A 33.528122 20.801519 15.387057 
A 0.481173 23.948281 0.395205 
A 35.175137 3.506777 37.941104 
A 4.344618 25.162939 28.611120 
A 32.294414 20.141918 25.314031 
A 24.096252 19.900172 4.905999 
A 12.012842 3.564098 29.444125 
A 6.601628 39.143825 6.134568 
A 25.524055 21.238919 22.490863 
A 30.592946 0.534060 30.541451 
A 6.069353 10.788177 3.422919 
A 4.755422 31.921303 28.037504 
A 24.922770 22.913926 32.876037 
A 24.205188 27.498336 20.724119 
A 1.588773 9.858315 2.946866 
A 28.111246 19.843953 26.427502 
A 26.391482 32.250816 26.128229 
40
timestep 18  
A 5.490345 7.235839 6.896536 
A 30.808475 6.750328 22.639832 
A 17.411568 8.058545 8.570412 
A 8.775086 8.386861 26.512396 
A 13.266361 20.576182 10.173189 
A 28.935337 30.984047 19.608427 
A 26.153280 7.082316 23.479774 
A 6.345245 8.989739 3.849214 
A 29.785496 27.067772 38.245962 
A 38.610049 1.444075 16.660480 
A 8.932188 23.772420 36.942778 
A 3.467645 37.160559 38.816364 
A 6.009093 26.032669 9.840414 
A 27.633846 8.439874 23.020319 
A 30.610870 28.050364 34.529541 
A 26.154237 27.320898 32.151033 
A 24.641310 8.719173 31.567512 
A 9.874549 29.475224 30.381012 
A 16.514733 22.630084 2.073624 
A 30.743923 32.103656 28.654117 
A 19.149269 23.119018 13.687188 
A 23.618986 5.431636 8.605854 
A 4.610747 4.482160 39.311410 
A 31.721809 20.539059 12.181278 
A 1.484509 25.727043 39.837481 
A 37.419271 3.723528 37.522761 
A 0.391914 27.914174 26.117708 
A 34.688477 19.821353 25.361675 
A 25.464350 18.208102 7.620331 
A 11.101268 39.605862 30.465908 
A 5.211634 0.047425 8.267881 
A 26.889052 21.644982 20.760593 
A 31.811216 1.821556 30.295599 
A 10.486816 13.044377 5.974605 
A 8.476826 33.433774 27.160714 
A 23.804762 25.102692 30.499235 
A 21.565723 26.611315 22.366914 
A 39.351018 10.308217 39.318335 
A 28.204081 19.803563 24.760858 
A 22.836421 28.490636 25.813407 
40
timestep 19  
A 6.996375 8.083051 5.673784 
A 31.632311 5.004078 25.510201 
A 19.168494 8.925747 9.339536 
A 7.334864 8.696679 26.922297 
A 13.507715 22.411772 9.612062 
A 28.483029 33.007901 23.448554 
A 25.025979 5.610141 22.406581 
A 6.898731 6.086481 1.967146 
A 29.780650 27.146233 38.130420 
A 38.200196 1.586637 16.182055 
A 9.945565 22.986042 37.860162 
A 4.372954 37.778517 39.642011 
A 3.678669 26.207070 10.806095 
A 27.809819 7.008165 22.990713 
A 29.527419 30.643315 34.883976 
A 25.664698 27.696327 33.034346 
A 25.329388 10.205197 30.775026 
A 9.218542 24.852312 31.830406 
A 16.082187 21.222710 1.933674 
A 33.319158 31.923783 27.776739 
A 15.664378 23.217478 15.576027 
A 24.685008 4.224972 10.267823 
A 5.002783 5.958507 37.051171 
A 29.915495 20.276599 8.975499 
A 2.487844 27.505804 39.279758 
A 39.663405 3.940280 37.104419 
A 36.439210 30.665409 23.624295 
A 37.082540 19.500788 25.409319 
A 26.832448 16.516032 10.334664 
A 10.189693 35.647626 31.487690 
A 3.821640 0.951025 10.401195 
A 28.254050 22.051045 19.030323 
A 33.029486 3.109052 30.049748 
A 14.904279 15.300578 8.526290 
A 12.198230 34.946245 26.283924 
A 22.686754 27.291459 28.122434 
A 18.926257 25.724295 24.009710 
A 37.113263 10.758119 35.689803 
A 28.296917 19.763172 23.094213 
A 19.281360 24.730456 25.498584 
40
timestep 20  
A 8.502405 8.930262 4.451031 
A 32.456147 3.257827 28.380570 
A 20.925421 9.792948 10.108660 
A 5.894642 9.006497 27.332198 
A 13.749068 24.247362 9.050936 
A 28.030721 35.031755 27.288680 
A 23.898678 4.137966 21.333389 
A 7.452218 3.183223 0.085078 
A 29.775804 27.224693 38.014877 
A 37.790343 1.729199 15.703630 
A 10.958941 22.199664 38.777546 
A 5.278264 38.396475 0.467659 
A 1.348245 26.381472 11.771775 
A 27.985792 5.576455 22.961107 
A 28.443967 33.236265 35.238410 
A 25.175160 28.071756 33.917659 
A 26.017466 11.691221 29.982539 
A 8.562534 20.229399 33.279800 
A 15.649641 19.815336 1.793725 
A 35.894394 31.743911 26.899361 
A 12.179488 23.315937 17.464866 
A 25.751030 3.018309 11.929791 
A 5.394820 7.434855 34.790933 
A 28.109182 20.014140 5.769721 
A 3.491180 29.284566 38.722034 
A 1.907540 4.157031 36.686077 
A 32.486507 33.416643 21.130883 
A 39.476603 19.180223 25.456963 
A 28.200546 14.823961 13.048997 
A 9.278119 31.689390 32.509473 
A 2.431647 1.854625 12.534508 
A 29.619047 22.457107 17.300053 
A 34.247755 4.396547 29.803897 
A 19.321742 17.556779 11.077976 
A 15.919633 36.458716 25.407135 
A 21.568745 29.480225 25.745633 
A 16.286137 24.839109 25.649759 
A 34.875507 11.208022 32.061272 
A 28.389752 19.722782 21.427568 
A 15.726955 20.968442 25.186508 
40
timestep 21  
A 10.008435 9.777474 3.228279 
A 33.279984 1.511577 31.250939 
A 22.682348 10.660149 10.877785 
A 4.454420 9.316315 27.742099 
A 13.990422 26.082951 8.489809 
A 27.578413 37.055608 31.128806 
A 22.771376 2.665791 20.260196 
A 8.005705 0.279965 38.203010 
A 29.770958 27.303154 37.899335 
A 37.380490 1.871761 15.225204 
A 11.972318 21.413286 39.694930 
A 6.183574 39.014433 1.293306 
A 39.017822 26.555873 12.737455 
A 28.161765 4.144746 22.931500 
A 27.360515 35.829216 35.592844 
A 24.685621 28.447185 34.800971 
A 26.705544 13.177245 29.190052 
A 7.906526 15.606486 34.729193 
A 15.217095 18.407962 1.653776 
A 38.469629 31.564039 26.021982 
A 8.694598 23.414397 19.353706 
A 26.817052 1.811645 13.591760 
A 5.786857 8.911202 32.530694 
A 26.302868 19.751680 2.563942 
A 4.494515 31.063328 38.164310 
A 4.151674 4.373782 36.267735 
A 28.533803 36.167878 18.637471 
A 1.870666 18.859658 25.504606 
A 29.568644 13.131891 15.763329 
A 8.366544 27.731154 33.531255 
A 1.041653 2.758225 14.667821 
A 30.984045 22.863170 15.569783 
A 35.466025 5.684043 29.558046 
A 23.739205 19.812980 13.629661 
A 19.641037 37.971188 24.530345 
A 20.450737 31.668991 23.368832 
A 13.646017 23.953922 27.289808 
A 32.637752 11.657924 28.432740 
A 28.482588 19.682392 19.760924 
A 12.172549 17.206428 24.874433 
40
timestep 22  
A 11.514465 10.624685 2.005527 
A 34.103820 39.765327 34.121308 
A 24.439274 11.527351 11.646909 
A 3.014198 9.626133 28.152000 
A 14.231776 27.918541 7.928682 
A 27.126104 39.079462 34.968933 
A 21.644075 1.193617 19.187004 
A 8.559191 37.376708 36.320943 
A 29.766112 27.381614 37.783793 
A 36.970637 2.014323 14.746779 
A 12.985694 20.626908 0.612315 
A 7.088884 39.632391 2.118953 
A 36.687398 26.730274 13.703135 
A 28.337739 2.713037 22.901894 
A 26.277064 38.422167 35.947278 
A 24.196082 28.822615 35.684284 
A 27.393622 14.663269 28.397566 
A 7.250518 10.983573 36.178587 
A 14.784549 17.000589 1.513826 
A 1.044864 31.384166 25.144604 
A 5.209707 23.512857 21.242545 
A 27.883073 0.604982 15.253729 
A 6.178893 10.387549 30.270455 
A 24.496555 19.489220 39.358163 
A 5.497851 32.842089 37.606587 
A 6.395808 4.590534 35.849393 
A 24.581099 38.919113 16.144058 
A 4.264729 18.539093 25.552250 
A 30.936741 11.439821 18.477662 
A 7.454970 23.772918 34.553038 
A 39.651659 3.661826 16.801135 
A 32.349042 23.269233 13.839512 
A 36.684295 6.971539 29.312194 
A 28.156669 22.069180 16.181347 
A 23.362440 39.483659 23.653555 
A 19.332729 33.857757 20.992030 
A 11.005896 23.068736 28.929857 