10
timestep 0  
A 0.081662 0.778004 4.975519 
A 0.790197 2.888663 0.730977 
A 3.300722 2.127169 3.532689 
A 4.213375 2.471707 2.687625 
A 3.005331 0.608777 1.223446 
A 3.255988 2.715237 0.161843 
A 1.081285 0.851720 4.363894 
A 3.165113 3.269539 2.104214 
A 3.056424 4.448644 1.012108 
A 4.763605 2.038108 3.744073 
10
timestep 1  
A 0.060991 0.771624 4.992259 
A 0.790731 2.890274 0.732271 
A 3.257652 2.113594 3.549863 
A 4.238207 2.481107 2.644136 
A 3.003421 0.635552 1.229187 
A 3.255270 2.715199 0.165247 
A 1.106289 0.850212 4.351430 
A 3.149596 3.277130 2.101519 
A 3.056526 4.432295 1.000932 
A 4.795019 2.030581 3.769544 
10
timestep 2  
A 0.020962 0.760360 0.023738 
A 0.791880 2.893018 0.734153 
A 3.193021 2.092283 3.574949 
A 4.277004 2.494525 2.577192 
A 2.999982 0.685021 1.239872 
A 3.254256 2.715095 0.170923 
A 1.153679 0.847988 4.327277 
A 3.123955 3.288862 2.098470 
A 3.056944 4.400565 0.980927 
A 4.842019 2.019852 3.808884 
10
timestep 3  
A 4.964113 0.744182 0.068524 
A 0.793787 2.896588 0.736374 
A 3.114880 2.065034 3.603251 
A 4.326851 2.508764 2.495223 
A 2.995023 0.755250 1.255481 
A 3.253228 2.714764 0.178756 
A 1.220976 0.845040 4.293241 
A 3.088729 3.303359 2.097121 
A 3.057657 4.355979 0.951721 
A 4.898459 2.008609 3.856693 
10
timestep 4  
A 4.897246 0.723514 0.122388 
A 0.796589 2.901034 0.738893 
A 3.029396 2.033477 3.631252 
A 4.385290 2.521744 2.404964 
A 2.988725 0.839288 1.274986 
A 3.252568 2.713839 0.188400 
A 1.300948 0.840397 4.253678 
A 3.044941 3.318919 2.099876 
A 3.058470 4.306234 0.913919 
A 4.959528 1.999123 3.908031 
10
timestep 5  
A 4.825716 0.699120 0.181817 
A 0.800488 2.906431 0.741624 
A 2.939977 1.998616 3.657152 
A 4.450527 2.533106 2.310878 
A 2.980948 0.930602 1.297205 
A 3.252548 2.711699 0.198889 
A 1.388238 0.833358 4.211738 
A 2.993974 3.334013 2.108832 
A 3.058947 4.257983 0.868506 
A 0.022340 1.992640 3.959747 
10
timestep 6  
A 4.752235 0.671584 0.244720 
A 0.805780 2.912900 0.744412 
A 2.848722 1.961389 3.680115 
A 4.520544 2.543055 2.215217 
A 2.971584 1.025279 1.321591 
A 3.253590 2.707415 0.209321 
A 1.479570 0.823276 4.169111 
A 2.937288 3.347717 2.125181 
A 3.059019 4.215450 0.816490 
A 0.085371 1.989505 4.010229 
10
timestep 7  
A 4.678389 0.641832 0.309819 
A 0.812755 2.920310 0.746905 
A 2.757403 1.923084 3.699706 
A 4.593505 2.551959 2.119512 
A 2.960415 1.120677 1.347860 
A 3.256099 2.699842 0.218672 
A 1.572510 0.809236 4.126767 
A 2.876181 3.360262 2.149127 
A 3.058576 4.180901 0.759224 
A 0.147870 1.989466 4.058793 
10
timestep 8  
A 4.605048 0.610407 0.376155 
A 0.822094 2.929004 0.748636 
A 2.668430 1.886121 3.715609 
A 4.667461 2.559945 2.025366 
A 2.947201 1.215263 1.375738 
A 3.260440 2.687801 0.225956 
A 1.664454 0.789493 4.085557 
A 2.811722 3.372087 2.179843 
A 3.057363 4.155492 0.698320 
A 0.209489 1.991955 4.105206 
10
timestep 9  
A 4.533077 0.577463 0.443069 
A 0.834497 2.939413 0.748602 
A 2.585266 1.854225 3.727248 
A 4.740897 2.567007 1.934150 
A 2.931681 1.308083 1.405466 
A 3.266705 2.670703 0.230335 
A 1.752153 0.760745 4.046545 
A 2.745070 3.383920 2.216271 
A 3.054975 4.139728 0.635301 
A 0.269381 1.996281 4.149401 
10
timestep 10  
A 4.463205 0.543137 0.509744 
A 0.851402 2.952254 0.745578 
A 2.510839 1.832685 3.733800 
A 4.812101 2.573106 1.847805 
A 2.913628 1.398414 1.437427 
A 3.275150 2.648165 0.231231 
A 1.832120 0.718078 4.011047 
A 2.676901 3.396420 2.257119 
A 3.050920 4.133554 0.571280 
A 0.327437 2.001755 4.191355 
10
timestep 11  
A 4.395769 0.507798 0.576012 
A 0.874345 2.968577 0.738015 
A 2.446352 1.826345 3.734882 
A 4.879018 2.577588 1.768385 
A 2.892875 1.485667 1.472096 
A 3.286372 2.620428 0.228205 
A 1.903056 0.656980 3.979655 
A 2.607712 3.410158 2.301295 
A 3.044700 4.136300 0.506837 
A 0.383504 2.007729 4.231004 
10
timestep 12  
A 4.331092 0.471867 0.641905 
A 0.905149 2.989458 0.724170 
A 2.390628 1.837436 3.730882 
A 4.939469 2.579427 1.698329 
A 2.869345 1.569071 1.509827 
A 3.300555 2.588350 0.221048 
A 1.965904 0.575749 3.951845 
A 2.537852 3.425628 2.347971 
A 3.036419 4.146916 0.442470 
A 0.437290 2.013667 4.267941 
10
timestep 13  
A 4.269487 0.435834 0.707640 
A 0.945713 3.016238 0.702678 
A 2.341195 1.864928 3.722740 
A 4.991245 2.577681 1.639321 
A 2.843019 1.648454 1.551015 
A 3.317849 2.553069 0.209663 
A 2.023129 0.475678 3.926668 
A 2.467798 3.443199 2.396478 
A 3.025788 4.163523 0.378065 
A 0.488479 2.018965 4.302117 
10
timestep 14  
A 4.211247 0.400215 0.773607 
A 0.996749 3.050261 0.673012 
A 2.295482 1.904317 3.711690 
A 0.033291 2.571610 1.592392 
A 2.814295 1.723640 1.595916 
A 3.338214 2.515773 0.194429 
A 2.077353 0.361525 3.902763 
A 2.397725 3.463226 2.446069 
A 3.012647 4.184072 0.313421 
A 0.536700 2.022929 4.333086 
10
timestep 15  
A 4.156776 0.365703 0.840128 
A 1.058008 3.092188 0.635907 
A 2.252038 1.950161 3.698765 
A 0.065822 2.560907 1.557037 
A 2.783452 1.794848 1.644293 
A 3.361658 2.477165 0.175510 
A 2.130068 0.239415 3.879099 
A 2.327659 3.485858 2.496206 
A 2.997052 4.206593 0.248408 
A 0.581169 2.024730 4.361034 
10
timestep 16  
A 4.106126 0.332557 0.907815 
A 1.128071 3.142015 0.593025 
A 2.210621 1.998447 3.684597 
A 0.090197 2.545893 1.531719 
A 2.750921 1.862415 1.695502 
A 3.388049 2.437614 0.153313 
A 2.181611 0.114014 3.854662 
A 2.257522 3.511410 2.546459 
A 2.979417 4.229355 0.183177 
A 0.621169 2.023849 4.386118 
10
timestep 17  
A 4.059308 0.301174 0.977303 
A 1.204599 3.199306 0.546710 
A 2.171845 2.046578 3.669232 
A 0.108294 2.527043 1.514287 
A 2.717253 1.926678 1.748587 
A 3.417119 2.397255 0.128406 
A 2.231313 4.989031 3.828459 
A 2.187245 3.540123 2.595907 
A 2.960606 4.250819 0.118763 
A 0.656119 2.019561 4.408733 
10
timestep 18  
A 4.015988 0.271378 1.048945 
A 1.285270 3.263070 0.498793 
A 2.136403 2.093139 3.652878 
A 0.122164 2.505372 1.502799 
A 2.683063 1.987895 1.802411 
A 3.448509 2.356111 0.101396 
A 2.278319 4.867361 3.799070 
A 2.116512 3.571798 2.643619 
A 2.942281 4.269828 0.056791 
A 0.685192 2.011616 4.429684 
10
timestep 19  
A 3.975688 0.242861 1.122884 
A 1.367963 3.332100 0.450566 
A 2.104952 2.137266 3.635790 
A 0.133082 2.481720 1.495808 
A 2.649344 2.046303 1.855723 
A 3.481816 2.314173 0.072818 
A 2.321571 4.752038 3.764738 
A 2.044719 3.605653 2.687995 
A 2.926785 4.285552 0.000080 
A 0.707782 1.999903 4.449985 
10
timestep 20  
A 3.937895 0.215284 1.199089 
A 1.450548 3.404742 0.403223 
A 2.077925 2.178385 3.618398 
A 0.142227 2.456816 1.492314 
A 2.616675 2.101964 1.907281 
A 3.516628 2.271433 0.043090 
A 2.360687 4.646668 3.723671 
A 1.970628 3.640009 2.726426 
A 2.916853 4.297821 4.952229 
A 0.723636 1.984449 4.470665 
10
timestep 21  
A 3.902136 0.188360 1.277433 
A 1.531016 3.479405 0.357560 
A 2.055408 2.215349 3.601416 
A 0.150358 2.431178 1.491706 
A 2.585628 2.154891 1.955804 
A 3.552548 2.227892 0.012505 
A 2.396755 4.555290 3.675782 
A 1.891853 3.672295 2.755245 
A 2.915083 4.307524 4.916369 
A 0.732916 1.965384 4.492567 
10
timestep 22  
A 3.868025 0.161886 1.357765 
A 1.607103 3.554328 0.314422 
A 2.037096 2.247821 3.585899 
A 0.157266 2.405004 1.493358 
A 2.557185 2.205036 2.000000 
A 3.589193 2.183563 4.981259 
A 2.433001 4.480185 3.622526 
A 1.804814 3.700157 2.770614 
A 2.923852 4.316678 4.894323 
A 0.736168 1.942911 4.516219 
10
timestep 23  
A 3.835068 0.136044 1.440053 
A 1.676135 3.627636 0.274774 
A 2.022385 2.275545 3.573221 
A 0.163169 2.378500 1.497058 
A 2.532219 2.252101 2.038342 
A 3.626189 2.138471 4.949478 
A 2.473698 4.421439 3.565302 
A 1.705492 3.722860 2.770786 
A 2.945134 4.327706 4.885562 
A 0.734214 1.917267 4.541809 
10
timestep 24  
A 3.803038 0.111045 1.523960 
A 1.735179 3.697552 0.239548 
A 2.010488 2.298453 3.564915 
A 0.168158 2.351780 1.502685 
A 2.511385 2.296207 2.069434 
A 3.663198 2.092349 4.917471 
A 2.522633 4.377110 3.504729 
A 1.591044 3.741520 2.756793 
A 2.980561 4.342862 4.887605 
A 0.728019 1.888691 4.569246 
10
timestep 25  
A 3.772016 0.086908 1.609097 
A 1.781900 3.762562 0.210044 
A 2.000553 2.316760 3.562384 
A 0.172232 2.324886 1.510174 
A 2.495264 2.337613 2.092075 
A 3.699551 2.045524 4.885319 
A 2.581403 4.343791 3.440867 
A 1.460685 3.758263 2.730631 
A 3.031514 4.363857 4.897539 
A 0.718584 1.857403 4.598257 
10
timestep 26  
A 3.742018 0.063647 1.695248 
A 1.814483 3.822049 0.185977 
A 1.991752 2.330971 3.566597 
A 0.175570 2.298003 1.519286 
A 2.484374 2.376321 2.104915 
A 3.734722 1.998117 4.853342 
A 2.648520 4.317835 3.373072 
A 1.316996 3.775671 2.696887 
A 3.098392 4.391372 4.912576 
A 0.706876 1.823584 4.628486 
10
timestep 27  
A 3.713170 0.041373 1.782044 
A 1.833106 3.876566 0.166613 
A 1.983379 2.341760 3.577859 
A 0.178027 2.271000 1.530016 
A 2.478683 2.412792 2.107797 
A 3.768357 1.950206 4.821474 
A 2.720840 4.296056 3.301202 
A 1.164120 3.795428 2.659222 
A 3.180214 4.425021 4.930597 
A 0.693806 1.787366 4.659563 
10
timestep 28  
A 3.685813 0.020399 1.868775 
A 1.839648 3.927097 0.151167 
A 1.974932 2.349823 3.595791 
A 0.179477 2.243705 1.542347 
A 2.477715 2.447706 2.100898 
A 3.799977 1.902200 4.789668 
A 2.795556 4.276441 3.226479 
A 1.005588 3.818027 2.619891 
A 3.274763 4.463334 4.950219 
A 0.680233 1.748837 4.691151 
10
timestep 29  
A 3.660714 0.001478 1.954045 
A 1.836647 3.974718 0.138510 
A 1.966164 2.355783 3.619476 
A 0.179827 2.215910 1.556254 
A 2.480835 2.481396 2.085200 
A 3.829248 1.854497 4.757826 
A 2.870428 4.257458 3.151279 
A 0.843752 3.843364 2.580103 
A 3.378939 4.504596 4.970657 
A 0.667149 1.708369 4.723037 
10
timestep 30  
A 3.639435 4.986318 2.035238 
A 1.826870 4.020693 0.127840 
A 1.957043 2.360168 3.647697 
A 0.179040 2.187408 1.571731 
A 2.487281 2.514022 2.061955 
A 3.855737 1.807241 4.725835 
A 2.943115 4.237078 3.079162 
A 0.680033 3.871206 2.540485 
A 3.489855 4.547516 4.991449 
A 0.655293 1.665918 4.754993 
10
timestep 31  
A 3.624159 4.978557 2.108037 
A 1.812525 4.065918 0.118627 
A 1.947674 2.363421 3.679186 
A 0.177149 2.158031 1.588805 
A 2.496278 2.545579 2.032441 
A 3.879010 1.760630 4.693539 
A 3.010579 4.211812 3.015067 
A 0.515702 3.901101 2.501473 
A 3.605267 4.591094 0.012338 
A 0.645359 1.621425 4.786874 
10
timestep 32  
A 3.617495 4.983173 2.167966 
A 1.795161 4.110963 0.110541 
A 1.938211 2.365897 3.712806 
A 0.174242 2.127695 1.607551 
A 2.507114 2.575938 1.997784 
A 3.898667 1.714922 4.660731 
A 3.069427 4.176846 2.963895 
A 0.351792 3.932731 2.463303 
A 3.723629 4.634578 0.033198 
A 0.637966 1.574825 4.818612 
10
timestep 33  
A 3.619855 0.004018 2.213638 
A 1.775790 4.156171 0.103385 
A 1.928585 2.368075 3.747476 
A 0.170438 2.096426 1.628080 
A 2.518900 2.605035 1.958908 
A 3.914390 1.670444 4.627152 
A 3.118254 4.128874 2.927553 
A 0.189926 3.965115 2.425988 
A 3.843959 4.677358 0.053997 
A 0.633607 1.526052 4.850209 
10
timestep 34  
A 3.629650 0.043373 2.246147 
A 1.755231 4.201739 0.096744 
A 1.918947 2.370085 3.782574 
A 0.165853 2.064350 1.650520 
A 2.531154 2.632515 1.916364 
A 3.925973 1.627586 4.592502 
A 3.157243 4.066516 2.905707 
A 0.031364 3.997472 2.389336 
A 3.965673 4.718887 0.074774 
A 0.632614 1.475045 4.881718 
10
timestep 35  
A 3.644596 0.103596 2.266919 
A 1.733875 4.247769 0.090567 
A 1.909373 2.372022 3.817666 
A 0.160579 2.031658 1.674982 
A 2.543408 2.657986 1.870411 
A 3.933346 1.586778 4.556451 
A 3.186618 3.988889 2.897577 
A 4.878308 4.028473 2.352964 
A 4.088148 4.758296 0.095671 
A 0.635451 1.422101 4.913179 
10
timestep 36  
A 3.660691 0.184019 2.279297 
A 1.712174 4.293905 0.084843 
A 1.899864 2.373951 3.852481 
A 0.154670 1.998564 1.701539 
A 2.555195 2.681036 1.821024 
A 3.936568 1.548429 4.518675 
A 3.207385 3.898724 2.900949 
A 4.734015 4.056230 2.316099 
A 4.211118 4.794915 0.116867 
A 0.642022 1.367795 4.944612 
10
timestep 37  
A 3.673427 0.280949 2.287467 
A 1.690698 4.340093 0.079543 
A 1.890356 2.375902 3.886878 
A 0.148290 1.965564 1.729797 
A 2.566056 2.701301 1.767932 
A 3.935976 1.512903 4.479194 
A 3.220555 3.801555 2.913870 
A 4.602271 4.078653 2.277858 
A 4.333786 4.828062 0.137813 
A 0.652287 1.312586 4.976034 
10
timestep 38  
A 3.680588 0.391381 2.294268 
A 1.670058 4.386002 0.074624 
A 1.880729 2.377878 3.920812 
A 0.141955 1.933059 1.759729 
A 2.575254 2.718478 1.710732 
A 3.931804 1.480304 4.437782 
A 3.225943 3.701166 2.935935 
A 4.485661 4.094823 2.236441 
A 4.455497 4.857246 0.158658 
A 0.666216 1.257232 0.007405 
10
timestep 39  
A 3.682052 0.512552 2.300835 
A 1.650681 4.431248 0.070033 
A 1.870806 2.379854 3.954321 
A 0.135883 1.901354 1.791222 
A 2.582187 2.732359 1.648979 
A 3.924427 1.450720 4.394783 
A 3.223417 3.598841 2.967876 
A 4.384768 4.105870 2.190174 
A 4.575560 4.881819 0.179540 
A 0.683923 1.202950 0.038622 
10
timestep 40  
A 3.678712 0.641631 2.307768 
A 1.633084 4.475540 0.065450 
A 1.860352 2.381775 3.987513 
A 0.130415 1.870788 1.824099 
A 2.586915 2.742973 1.582785 
A 3.914277 1.423867 4.350434 
A 3.214001 3.494611 3.010054 
A 4.297447 4.113901 2.138163 
A 4.692678 4.900842 0.200605 
A 0.705821 1.151639 0.069516 
10
timestep 41  
A 3.671520 0.775326 2.315275 
A 1.618284 4.518086 0.060753 
A 1.849155 2.383599 4.020231 
A 0.126084 1.841754 1.858115 
A 2.589290 2.751115 1.512581 
A 3.901864 1.399336 4.305172 
A 3.199812 3.388482 3.061601 
A 4.220251 4.120925 2.080754 
A 4.804725 4.912835 0.222041 
A 0.732719 1.106111 0.099863 
10
timestep 42  
A 3.660770 0.910543 2.323019 
A 1.607806 4.557773 0.055724 
A 1.836776 2.385185 4.052803 
A 0.123674 1.814682 1.892961 
A 2.589547 2.757421 1.438780 
A 3.887865 1.376317 4.259843 
A 3.183244 3.281585 3.120185 
A 4.149737 4.128109 2.019223 
A 4.908560 4.915840 0.244420 
A 0.765722 1.070115 0.129427 
10
timestep 43  
A 3.646023 1.045417 2.330744 
A 1.603791 4.593167 0.049988 
A 1.822671 2.386384 4.085596 
A 0.124092 1.790320 1.928303 
A 2.587922 2.762429 1.361968 
A 3.872885 1.354231 4.215281 
A 3.166362 3.174670 3.183310 
A 4.083407 4.135540 1.955092 
A 0.000783 4.907623 0.268045 
A 0.805766 1.047787 0.158059 
10
timestep 44  
A 3.626520 1.178163 2.337888 
A 1.608889 4.622677 0.042945 
A 1.806034 2.387005 4.118561 
A 0.128568 1.768858 1.963787 
A 2.584721 2.766578 1.283147 
A 3.857522 1.332448 4.172446 
A 3.150630 3.069235 3.248777 
A 4.019530 4.143365 1.889709 
A 0.078327 4.886727 0.293294 
A 0.852963 1.042512 0.185832 
10
timestep 45  
A 3.601416 1.307853 2.343771 
A 1.625739 4.644979 0.033799 
A 1.786065 2.387000 4.151919 
A 0.138243 1.750190 1.999161 
A 2.580066 2.770092 1.202869 
A 3.842367 1.310213 4.132362 
A 3.137141 2.966650 3.314771 
A 3.957071 4.151645 1.824071 
A 0.139252 4.853159 0.320550 
A 0.906342 1.055788 0.213113 
10
timestep 46  
A 3.570314 1.433975 2.347395 
A 1.656111 4.659562 0.021721 
A 1.761940 2.386499 4.185720 
A 0.153813 1.733867 2.034356 
A 2.574035 2.773074 1.121559 
A 3.828022 1.286568 4.096016 
A 3.126595 2.868527 3.380130 
A 3.895416 4.160445 1.758875 
A 0.183359 4.808473 0.350082 
A 0.964097 1.086579 0.240535 
10
timestep 47  
A 3.533595 1.556150 2.347348 
A 1.700203 4.666988 0.006117 
A 1.732934 2.385899 4.219683 
A 0.175503 1.719285 2.069177 
A 2.566968 2.775816 1.039700 
A 3.814913 1.260228 4.064543 
A 3.119215 2.776808 3.444541 
A 3.834170 4.169854 1.694611 
A 0.212343 4.755259 0.381910 
A 1.023858 1.131281 0.268757 
10
timestep 48  
A 3.492453 1.673880 2.341781 
A 1.756624 4.668653 4.986822 
A 1.698543 2.385921 4.253038 
A 0.202686 1.705765 2.103880 
A 2.559101 2.778389 0.957654 
A 3.804013 1.229736 4.038610 
A 3.114660 2.693733 3.508756 
A 3.773037 4.179983 1.631634 
A 0.229198 4.696160 0.415762 
A 1.083388 1.185349 0.298450 
10
timestep 49  
A 3.448567 1.786381 2.328497 
A 1.823003 4.666265 4.964087 
A 1.658516 2.387602 4.284399 
A 0.234336 1.692780 2.138771 
A 2.550883 2.780883 0.876114 
A 3.796121 1.193362 4.018420 
A 3.112065 2.621436 3.574282 
A 3.711726 4.191236 1.570290 
A 0.237124 4.633450 0.450931 
A 1.141363 1.244174 0.330595 
10
timestep 50  
A 3.403444 1.893721 2.305787 
A 1.896791 4.661403 4.938399 
A 1.612751 2.392215 4.311752 
A 0.269340 1.680011 2.174135 
A 2.542764 2.783497 0.796022 
A 3.791713 1.149823 4.003481 
A 3.110772 2.561303 3.642624 
A 3.649944 4.203521 1.510976 
A 0.239299 4.568454 0.486865 
A 1.196883 1.303621 0.366345 
10
timestep 51  
A 3.358013 1.996359 2.273387 
A 1.975423 4.655442 4.909942 
A 1.561382 2.400887 4.332591 
A 0.306709 1.667308 2.210197 
A 2.535490 2.786540 0.718110 
A 3.790768 1.098443 3.992992 
A 3.110333 2.513106 3.715128 
A 3.587935 4.217330 1.453940 
A 0.238255 4.501998 0.523068 
A 1.249394 1.360156 0.407033 
10
timestep 52  
A 3.312690 2.095547 2.232644 
A 2.056818 4.649168 4.879134 
A 1.503873 2.414657 4.344467 
A 0.345647 1.654620 2.247133 
A 2.529967 2.790470 0.643198 
A 3.793643 1.039171 3.985774 
A 3.110841 2.475455 3.791613 
A 3.525718 4.232915 1.399311 
A 0.235815 4.434572 0.559182 
A 1.298691 1.410994 0.453930 
10
timestep 53  
A 3.267616 2.192382 2.186085 
A 2.139543 4.643310 4.846086 
A 1.439407 2.433897 4.345620 
A 0.385537 1.641953 2.285084 
A 2.527081 2.795867 0.572091 
A 3.800197 0.972423 3.980747 
A 3.112764 2.446400 3.870591 
A 3.463439 4.250553 1.347256 
A 0.233187 4.366450 0.595005 
A 1.344932 1.454334 0.507822 
10
timestep 54  
A 3.222897 2.287465 2.136462 
A 2.222431 4.638423 4.810690 
A 1.367416 2.458295 4.335953 
A 0.425718 1.629183 2.323795 
A 2.527381 2.803382 0.505527 
A 3.810093 0.899143 3.976957 
A 3.116752 2.423859 3.949874 
A 3.401405 4.270539 1.298029 
A 0.231103 4.297771 0.630461 
A 1.388506 1.489508 0.568639 
10
timestep 55  
A 3.178674 2.380957 2.086130 
A 2.304443 4.634925 4.772597 
A 1.287679 2.486810 4.316492 
A 0.465797 1.616291 2.363307 
A 2.530687 2.813696 0.444315 
A 3.822945 0.820587 3.973650 
A 3.123625 2.405702 4.026860 
A 3.340081 4.293173 1.252042 
A 0.229950 4.228601 0.665560 
A 1.429821 1.516827 0.635434 
10
timestep 56  
A 3.135535 2.472695 2.037465 
A 2.384436 4.633465 4.731335 
A 1.200938 2.517910 4.289004 
A 0.505444 1.603227 2.403644 
A 2.535763 2.827566 0.389611 
A 3.838382 0.738328 3.969985 
A 3.134901 2.389445 4.098071 
A 3.280051 4.318758 1.209921 
A 0.229817 4.159567 0.700609 
A 1.468434 1.536607 0.706741 
10
timestep 57  
A 3.094022 2.562485 1.991903 
A 2.461377 4.634224 4.686112 
A 1.108376 2.550565 4.255722 
A 0.544054 1.590016 2.444762 
A 2.540268 2.845907 0.343012 
A 3.856392 0.653606 3.965596 
A 3.152162 2.372572 4.159966 
A 3.221914 4.347605 1.172513 
A 0.230635 4.090689 0.735769 
A 1.504502 1.549901 0.781030 
10
timestep 58  
A 3.054276 2.650222 1.950593 
A 2.533698 4.636765 4.636178 
A 1.011590 2.584439 4.218699 
A 0.581458 1.576481 2.486654 
A 2.541212 2.869747 0.305997 
A 3.877304 0.567609 3.960086 
A 3.177212 2.352488 4.209355 
A 3.166138 4.380074 1.140779 
A 0.232580 4.022085 0.771061 
A 1.538234 1.557659 0.856985 
10
timestep 59  
A 3.016464 2.735779 1.914547 
A 2.600429 4.640780 4.580905 
A 0.911840 2.619199 4.179483 
A 0.617485 1.562392 2.529291 
A 2.535808 2.899866 0.278899 
A 3.901894 0.481506 3.952952 
A 3.211515 2.326979 4.244537 
A 3.112927 4.416627 1.115551 
A 0.235397 3.953791 0.806698 
A 1.569943 1.560650 0.933524 
10
timestep 60  
A 2.980767 2.819015 1.884684 
A 2.660310 4.645805 4.520402 
A 0.810081 2.654787 4.139213 
A 0.651982 1.547455 2.572640 
A 2.522181 2.936385 0.260413 
A 3.931494 0.396496 3.943541 
A 3.255678 2.294700 4.265804 
A 3.062169 4.457863 1.097244 
A 0.238865 3.885846 0.842871 
A 1.600175 1.559218 1.009574 
10
timestep 61  
A 2.947346 2.899769 1.861808 
A 2.711929 4.650742 4.455298 
A 0.706928 2.691343 4.098705 
A 0.684845 1.531331 2.616691 
A 2.499734 2.978477 0.247795 
A 3.968029 0.313775 3.931068 
A 3.308929 2.255387 4.275471 
A 3.013513 4.504486 1.085673 
A 0.242811 3.818277 0.879750 
A 1.629638 1.553982 1.084128 
10
timestep 62  
A 2.916379 2.977781 1.846887 
A 2.753563 4.654455 4.386757 
A 0.603400 2.729154 4.058490 
A 0.716027 1.513675 2.661502 
A 2.469478 3.024248 0.237458 
A 4.013980 0.234487 3.914435 
A 3.368951 2.210132 4.276287 
A 2.966601 4.556729 1.080425 
A 0.246746 3.751228 0.917568 
A 1.658577 1.545680 1.156576 
10
timestep 63  
A 2.887919 3.052888 1.840199 
A 2.783666 4.655836 4.315994 
A 0.499809 2.768458 4.019071 
A 0.745544 1.494188 2.707243 
A 2.432788 3.071571 0.226272 
A 4.071528 0.159123 3.893214 
A 3.433523 2.160835 4.271400 
A 2.921081 4.615091 1.080352 
A 0.250526 3.684682 0.956436 
A 1.687318 1.534896 1.226205 
10
timestep 64  
A 2.861927 3.124970 1.841678 
A 2.801368 4.654894 4.243825 
A 0.396335 2.809663 3.980416 
A 0.773453 1.472686 2.754211 
A 2.391060 3.118609 0.212229 
A 4.141753 0.087361 3.867857 
A 3.500585 2.108848 4.263182 
A 2.877242 4.679720 1.083844 
A 0.253681 3.618735 0.996443 
A 1.716298 1.522081 1.292701 
10
timestep 65  
A 2.838278 3.193984 1.850906 
A 2.807102 4.652312 4.170462 
A 0.293294 2.853155 3.942316 
A 0.799819 1.449145 2.802810 
A 2.345430 3.164102 0.194472 
A 4.224450 0.018328 3.839028 
A 3.568383 2.055032 4.253221 
A 2.834895 4.750438 1.089738 
A 0.256187 3.553301 1.037604 
A 1.745863 1.507772 1.355830 
10
timestep 66  
A 2.816772 3.259996 1.867177 
A 2.802625 4.649122 4.095668 
A 0.191429 2.898904 3.904426 
A 0.824694 1.423707 2.853481 
A 2.296781 3.207337 0.172980 
A 4.317752 4.951264 3.807689 
A 3.635428 1.999687 4.242558 
A 2.793990 4.826653 1.097032 
A 0.258017 3.488282 1.079902 
A 1.776216 1.492617 1.415473 
10
timestep 67  
A 2.797165 3.323174 1.889615 
A 2.790325 4.645928 4.019059 
A 0.091554 2.947091 3.866295 
A 0.848115 1.396650 2.906614 
A 2.245806 3.248018 0.148202 
A 4.419049 4.885377 3.774792 
A 3.700573 1.942969 4.231962 
A 2.754623 4.907368 1.104882 
A 0.259133 3.423573 1.123297 
A 1.807360 1.477421 1.471669 
10
timestep 68  
A 2.779199 3.383777 1.917290 
A 2.772687 4.643379 3.940361 
A 4.994836 2.997772 3.827631 
A 0.870124 1.368345 2.962481 
A 2.192747 3.286082 0.120593 
A 4.525639 4.820465 3.741055 
A 3.762846 1.884280 4.222035 
A 2.717079 4.991174 1.112546 
A 0.259504 3.359072 1.167735 
A 1.839041 1.463222 1.524662 
10
timestep 69  
A 2.762624 3.441821 1.948854 
A 2.751687 4.642086 3.859938 
A 4.901832 3.050407 3.788017 
A 0.890793 1.339209 3.021209 
A 2.138081 3.321686 0.090819 
A 4.635262 4.757174 3.706905 
A 3.821740 1.822867 4.213253 
A 2.681898 0.076229 1.119260 
A 0.258852 3.294987 1.213101 
A 1.870933 1.451104 1.575031 
10
timestep 70  
A 2.747215 3.497490 1.983314 
A 2.728701 4.642270 3.778035 
A 4.812506 3.103303 3.747238 
A 0.910634 1.309579 3.082552 
A 2.082178 3.355073 0.059456 
A 4.746341 4.697237 3.672529 
A 3.876936 1.758254 4.206157 
A 2.649937 0.160200 1.124093 
A 0.257151 3.231244 1.259333 
A 1.902103 1.442918 1.623679 
10
timestep 71  
A 2.732782 3.550868 2.019691 
A 2.704600 4.644097 3.695091 
A 4.725981 3.153221 3.705673 
A 0.929902 1.279875 3.146356 
A 2.025557 3.386310 0.026839 
A 4.858247 4.643572 3.637932 
A 3.928659 1.690551 4.201012 
A 2.622361 0.240306 1.125783 
A 0.254336 3.167765 1.306039 
A 1.931276 1.441003 1.671970 
10
timestep 72  
A 2.719178 3.601871 2.056944 
A 2.680190 4.647619 3.612238 
A 4.640092 3.196000 3.663913 
A 0.948613 1.250795 3.212317 
A 1.968338 3.415477 4.993559 
A 4.971629 4.599555 3.603036 
A 3.977612 1.620034 4.197768 
A 2.600470 0.313536 1.122321 
A 0.250520 3.104526 1.352803 
A 1.957060 1.448156 1.721487 
10
timestep 73  
A 2.706303 3.650150 2.093853 
A 2.655458 4.653460 3.530348 
A 4.552269 3.228397 3.622243 
A 0.967056 1.222873 3.280216 
A 1.910622 3.442918 4.959841 
A 0.088237 4.567121 3.567790 
A 4.024384 1.547236 4.196312 
A 2.585252 0.377555 1.112031 
A 0.245773 3.041488 1.399536 
A 1.978347 1.466371 1.774218 
10
timestep 74  
A 2.693768 3.695041 2.128555 
A 2.630531 4.662386 3.450749 
A 4.460366 3.250217 3.581141 
A 0.985562 1.196740 3.349874 
A 1.852473 3.468918 4.925834 
A 0.209719 4.545166 3.532235 
A 4.069349 1.472740 4.196532 
A 2.576999 0.431303 1.093573 
A 0.240174 2.978624 1.446127 
A 1.994762 1.496434 1.831767 
10
timestep 75  
A 2.681502 3.735293 2.158871 
A 2.606196 4.675591 3.375731 
A 4.363846 3.263668 3.540762 
A 1.004295 1.173425 3.421222 
A 1.794270 3.493483 4.891927 
A 0.335165 4.530098 3.496167 
A 4.112674 1.397068 4.198339 
A 2.575170 0.475385 1.066047 
A 0.233798 2.915915 1.492452 
A 2.006787 1.537642 1.894868 
10
timestep 76  
A 2.669503 3.769068 2.182081 
A 2.582557 4.694694 3.308008 
A 4.263659 3.271971 3.501322 
A 1.023636 1.153763 3.494267 
A 1.736170 3.516670 4.858358 
A 0.463039 4.517434 3.459432 
A 4.154359 1.320659 4.201667 
A 2.578599 0.511568 1.029956 
A 0.226703 2.853357 1.538388 
A 2.015475 1.588384 1.962908 
10
timestep 77  
A 2.657682 3.794161 2.194984 
A 2.559712 4.722013 3.250105 
A 4.161429 3.277442 3.463108 
A 1.043884 1.138601 3.569167 
A 1.678501 3.538468 4.825789 
A 0.591178 4.503669 3.421630 
A 4.194279 1.243853 4.206463 
A 2.585882 0.542186 0.986635 
A 0.218919 2.790954 1.583814 
A 2.022236 1.646221 2.034691 
10
timestep 78  
A 2.646064 3.808771 2.195452 
A 2.538036 4.759662 3.203725 
A 4.058652 3.281223 3.426483 
A 1.065190 1.128585 3.646215 
A 1.621465 3.558702 4.794617 
A 0.717527 4.486759 3.382107 
A 4.232476 1.166998 4.212400 
A 2.595526 0.569279 0.937978 
A 0.210437 2.728714 1.628632 
A 2.028330 1.708874 2.108777 
10
timestep 79  
A 2.634974 3.812052 2.182363 
A 2.518488 4.808887 3.169065 
A 3.956513 3.283664 3.391880 
A 1.087554 1.123947 3.725751 
A 1.565421 3.577384 4.765603 
A 0.839694 4.466053 3.340330 
A 4.268739 1.090227 4.219391 
A 2.606433 0.594135 0.885293 
A 0.201215 2.666639 1.672761 
A 2.034671 1.774582 2.183951 
10
timestep 80  
A 2.624228 3.804759 2.156089 
A 2.502892 4.869797 3.144723 
A 3.855946 3.284692 3.359811 
A 1.110889 1.124446 3.808056 
A 1.510322 3.593982 4.739783 
A 0.955393 4.441571 3.295596 
A 4.302866 1.013571 4.227333 
A 2.617960 0.617803 0.829750 
A 0.191380 2.604858 1.715865 
A 2.041827 1.842090 2.259382 
10
timestep 81  
A 2.613478 3.789077 2.117894 
A 2.493934 4.941619 3.128140 
A 3.757710 3.284054 3.330867 
A 1.135104 1.129492 3.893290 
A 1.456216 3.608129 4.717947 
A 1.061984 4.413480 3.247380 
A 4.334706 0.936978 4.236101 
A 2.629683 0.640918 0.772206 
A 0.180807 2.543330 1.757949 
A 2.050082 1.910493 2.334613 
10
timestep 82  
A 2.602382 3.767981 2.069168 
A 2.494499 0.023369 3.116494 
A 3.663118 3.281599 3.306018 
A 1.159876 1.138451 3.981147 
A 1.402946 3.619596 4.700767 
A 1.156384 4.381637 3.195572 
A 4.364395 0.860379 4.245279 
A 2.641583 0.663761 0.713624 
A 0.169383 2.481996 1.799039 
A 2.059136 1.978799 2.409280 
10
timestep 83  
A 2.590828 3.744389 2.010782 
A 2.506402 0.114266 3.107560 
A 3.572652 3.277285 3.285994 
A 1.185059 1.150683 4.071461 
A 1.350187 3.628388 4.688596 
A 1.237314 4.345450 3.140138 
A 4.391990 0.783577 4.254732 
A 2.653580 0.686508 0.654581 
A 0.157032 2.420777 1.839175 
A 2.068659 2.046246 2.483367 
10
timestep 84  
A 2.579068 3.720611 1.942935 
A 2.529514 0.213472 3.099635 
A 3.486680 3.271323 3.271458 
A 1.210432 1.165669 4.163974 
A 1.297562 3.634751 4.681381 
A 1.305293 4.304556 3.081336 
A 4.417690 0.706372 4.264309 
A 2.665689 0.709145 0.595945 
A 0.143722 2.359588 1.878409 
A 2.078052 2.112081 2.557003 
10
timestep 85  
A 2.567707 3.698136 1.865390 
A 2.561791 0.319185 3.092244 
A 3.405941 3.264085 3.262935 
A 1.235640 1.183029 4.258334 
A 1.244916 3.639297 4.678507 
A 1.361721 4.260141 3.019882 
A 4.441830 0.628578 4.273868 
A 2.678093 0.731683 0.538182 
A 0.129467 2.298340 1.916806 
A 2.086596 2.175095 2.630239 
10
timestep 86  
A 2.557552 3.677599 1.777879 
A 2.600732 0.429182 3.084540 
A 3.331045 3.256513 3.260707 
A 1.260123 1.202114 4.354002 
A 1.192005 3.642820 4.679484 
A 1.408777 4.213826 2.956760 
A 4.464843 0.550026 4.283287 
A 2.691114 0.754292 0.482417 
A 0.114321 2.236957 1.954439 
A 2.093190 2.234238 2.702871 
10
timestep 87  
A 2.549378 3.658882 1.680467 
A 2.644211 0.541225 3.076144 
A 3.263056 3.250057 3.264895 
A 1.283086 1.222762 4.450397 
A 1.138688 3.645730 4.683659 
A 1.448116 4.167571 2.893089 
A 4.487194 0.470576 4.292479 
A 2.705398 0.776784 0.429194 
A 0.098362 2.175380 1.991383 
A 2.096215 2.288601 2.774678 
10
timestep 88  
A 2.543994 3.641381 1.574106 
A 2.690852 0.653389 3.066785 
A 3.203755 3.246680 3.275588 
A 1.303463 1.244703 4.546666 
A 1.084908 3.648073 4.690087 
A 1.480601 4.123486 2.830001 
A 4.509055 0.390401 4.301325 
A 2.721887 0.798887 0.379094 
A 0.081676 2.113564 2.027710 
A 2.093510 2.337004 2.845023 
10
timestep 89  
A 2.541709 3.624642 1.460133 
A 2.739956 0.763828 3.056053 
A 3.155859 3.248501 3.292729 
A 1.319905 1.268134 4.642232 
A 1.030525 3.650221 4.698488 
A 1.506567 4.083115 2.767954 
A 4.530687 0.309521 4.309761 
A 2.741810 0.820246 0.332636 
A 0.064070 2.051647 2.063663 
A 2.082614 2.377713 2.912738 
10
timestep 90  
A 2.542525 3.607924 1.339849 
A 2.791442 0.871097 3.043926 
A 3.121760 3.257926 3.316338 
A 1.330964 1.293305 4.736701 
A 0.975574 3.652237 4.708414 
A 1.526094 4.047779 2.706882 
A 4.552215 0.228034 4.317722 
A 2.766526 0.840463 0.290119 
A 0.045640 1.989597 2.099269 
A 2.060963 2.409206 2.977166 
10
timestep 91  
A 2.546262 3.590753 1.214624 
A 2.845482 0.973883 3.030267 
A 3.103083 3.276574 3.346213 
A 1.335412 1.320430 4.830037 
A 0.920148 3.654059 4.719531 
A 1.539289 4.018487 2.646250 
A 4.573604 0.146142 4.325123 
A 2.797202 0.859201 0.251473 
A 0.026454 1.927388 2.134545 
A 2.026766 2.430650 3.038323 
10
timestep 92  
A 2.552667 3.572887 1.085710 
A 2.902560 1.071488 3.014913 
A 3.099801 3.304531 3.381720 
A 1.332613 1.349565 4.922606 
A 0.864415 3.655480 4.731630 
A 1.546494 3.995794 2.585246 
A 4.594652 0.064186 4.331846 
A 2.834439 0.876297 0.216233 
A 0.006553 1.865000 2.169499 
A 1.979508 2.442339 3.096984 
10
timestep 93  
A 2.561491 3.554233 0.954150 
A 2.962559 1.163170 2.997765 
A 3.109961 3.340472 3.421761 
A 1.322732 1.380536 0.015038 
A 0.808683 3.656105 4.744648 
A 1.548561 3.980006 2.523131 
A 4.615195 4.982974 4.337862 
A 2.878056 0.891836 0.183678 
A 4.986405 1.802579 2.203944 
A 1.920060 2.445659 3.154409 
10
timestep 94  
A 2.572514 3.534595 0.821389 
A 3.025449 1.249291 2.978947 
A 3.130560 3.382633 3.464887 
A 1.306821 1.412936 0.107772 
A 0.753475 3.655280 4.758708 
A 1.546335 3.970499 2.459320 