40
timestep 0  
A 24.464112 22.446102 11.014115 
A 38.144527 27.322353 7.251666 
A 3.584310 39.529395 2.727809 
A 6.370104 5.913030 21.528221 
A 16.757936 8.754303 39.880958 
A 36.059282 14.427551 31.070830 
A 17.389794 5.571564 7.835219 
A 10.265411 39.614817 27.445633 
A 12.001355 29.347853 9.471348 
A 32.902592 0.191022 36.355750 
A 22.092564 33.772297 27.429250 
A 3.982701 21.851831 19.717808 
A 3.425774 29.584855 36.079105 
A 3.586069 12.583244 25.185570 
A 2.605704 6.227033 38.370085 
A 8.552650 12.445869 28.771272 
A 33.621090 26.619362 15.216857 
A 28.381923 21.932683 6.956836 
A 1.171715 1.405508 35.960500 
A 22.821290 35.258774 16.455674 
A 33.096520 18.379812 37.867481 
A 19.099331 4.616300 28.212226 
A 30.574450 11.772779 6.837121 
A 2.317233 29.784067 34.322142 
A 7.383757 37.508744 38.804200 
A 9.211551 21.585901 30.886214 
A 11.727450 19.094367 36.536515 
A 18.378904 16.907073 24.959498 
A 14.911526 15.540628 32.476212 
A 36.933508 13.260655 37.015314 
A 21.801466 19.764150 31.392636 
A 2.807219 37.665183 1.866103 
A 12.763428 0.755442 17.531527 
A 28.807462 4.971250 34.381103 
A 0.735760 23.958744 24.062408 
A 24.677689 30.478025 15.187564 
A 1.650232 16.051100 0.627272 
A 9.855566 12.909823 4.707990 
A 20.893470 36.227439 31.746552 
A 12.048863 11.389400 18.674446 
40
timestep 1  
A 26.333984 23.497992 9.495958 
A 39.167394 25.154226 10.815488 
A 5.766032 0.606917 3.683122 
A 4.580908 6.298111 22.037004 
A 17.057069 11.033339 39.183525 
A 35.497334 16.939235 35.838657 
A 15.991665 3.746379 6.500702 
A 10.950729 36.012891 25.101843 
A 11.995066 29.444223 9.328302 
A 32.393722 0.368026 35.761742 
A 23.350763 32.795937 28.568265 
A 5.106725 22.619081 20.742923 
A 1.096292 29.759970 37.045598 
A 3.760819 11.149399 25.157616 
A 1.522252 8.819983 38.724519 
A 8.063111 12.821299 29.654584 
A 34.309168 28.105386 14.424370 
A 27.726745 17.309436 8.406348 
A 0.739169 39.998134 35.820550 
A 25.396525 35.078902 15.578295 
A 29.595297 18.486524 39.744123 
A 20.165353 3.409636 29.874195 
A 30.968006 13.246927 4.582547 
A 0.524145 29.516647 31.127440 
A 8.387093 39.289555 38.245816 
A 11.455685 21.802653 30.467872 
A 7.774746 21.845602 34.043102 
A 20.772967 16.586508 25.007142 
A 16.280051 13.848569 35.191144 
A 36.024615 9.300152 38.037103 
A 20.411472 20.667750 33.525950 
A 4.172007 38.071053 0.135023 
A 13.981697 2.042938 17.285675 
A 33.224925 7.227451 36.932788 
A 4.457034 25.470594 23.186052 
A 23.559681 32.666791 12.810763 
A 39.010766 15.164080 2.270068 
A 7.617810 13.357676 1.080119 
A 20.986306 36.187049 30.079908 
A 8.493803 7.629219 18.359623 
40
timestep 2  
A 28.203857 24.549882 7.977801 
A 0.190261 22.986098 14.379311 
A 7.947754 1.684439 4.638435 
A 2.791712 6.683193 22.545786 
A 17.356202 13.312375 38.486092 
A 34.935386 19.450919 0.606485 
A 14.593537 1.921193 5.166185 
A 11.636046 32.410965 22.758052 
A 11.988776 29.540593 9.185256 
A 31.884852 0.545030 35.167734 
A 24.608961 31.819578 29.707280 
A 6.230749 23.386332 21.768038 
A 38.766810 29.935084 38.012091 
A 3.935570 9.715553 25.129663 
A 0.438800 11.412934 39.078953 
A 7.573572 13.196728 30.537897 
A 34.997246 29.591410 13.631884 
A 27.071567 12.686190 9.855859 
A 0.306623 38.590760 35.680601 
A 27.971760 34.899029 14.700917 
A 26.094074 18.593236 1.620765 
A 21.231374 2.202973 31.536164 
A 31.361562 14.721075 2.327973 
A 38.731056 29.249228 27.932738 
A 9.390429 1.070366 37.687431 
A 13.699819 22.019404 30.049530 
A 3.822043 24.596837 31.549690 
A 23.167030 16.265943 25.054786 
A 17.648575 12.156511 37.906076 
A 35.115722 5.339650 39.058891 
A 19.021478 21.571350 35.659263 
A 5.536794 38.476924 38.403942 
A 15.199967 3.330434 17.039824 
A 37.642388 9.483651 39.484474 
A 8.178309 26.982445 22.309697 
A 22.441673 34.855557 10.433962 
A 36.371301 14.277060 3.912863 
A 5.380054 13.805528 37.452249 
A 21.079141 36.146659 28.413263 
A 4.938742 3.869039 18.044801 
40
timestep 3  
A 30.073729 25.601771 6.459644 
A 1.213128 20.817971 17.943133 
A 10.129476 2.761961 5.593748 
A 1.002516 7.068274 23.054569 
A 17.650693 15.609764 37.797869 
A 34.373438 21.962603 5.374312 
A 13.195408 0.096007 3.831668 
A 12.321364 28.809040 20.414262 
A 11.982486 29.636962 9.042210 
A 31.375983 0.722033 34.573726 
A 25.867159 30.843219 30.846295 
A 7.354772 24.153583 22.793153 
A 36.437327 30.110198 38.978585 
A 4.110321 8.281708 25.101710 
A 39.355349 14.005884 39.433388 
A 7.084033 13.572157 31.421210 
A 35.685324 31.077434 12.839397 
A 26.416389 8.062943 11.305371 
A 39.874076 37.183386 35.540652 
A 30.546995 34.719157 13.823539 
A 22.592851 18.699949 3.497407 
A 22.297396 0.996309 33.198132 
A 31.755118 16.195222 0.073400 
A 36.937967 28.981808 24.738037 
A 10.393766 2.851177 37.129047 
A 15.943953 22.236156 29.631188 
A 39.869339 27.348071 29.056277 
A 25.561093 15.945378 25.102430 
A 19.021742 10.446098 0.611797 
A 34.206830 1.379147 0.080679 
A 17.631484 22.474950 37.792576 
A 6.901582 38.882795 36.672862 
A 16.418237 4.617930 16.793973 
A 2.059851 11.739852 2.036159 
A 11.899584 28.494295 21.433342 
A 21.323665 37.044323 8.057161 
A 33.731836 13.390040 5.555659 
A 3.142297 14.253381 33.824378 
A 21.171977 36.106269 26.746618 
A 1.383681 0.108858 17.729978 
40
timestep 4  
A 31.943601 26.653661 4.941487 
A 2.235995 18.649844 21.506955 
A 12.311197 3.839482 6.549061 
A 39.213320 7.453355 23.563351 
A 17.945183 17.907154 37.109646 
A 33.811490 24.474287 10.142139 
A 11.797280 38.270821 2.497150 
A 13.010786 25.210177 18.060553 
A 11.976196 29.733332 8.899164 
A 30.867113 0.899037 33.979718 
A 27.125358 29.866860 31.985310 
A 8.478796 24.920833 23.818269 
A 34.107845 30.285312 39.945078 
A 4.285072 6.847863 25.073756 
A 38.271897 16.598835 39.787822 
A 6.594495 13.947587 32.304522 
A 36.373402 32.563458 12.046910 
A 25.761211 3.439697 12.754882 
A 39.441530 35.776012 35.400703 
A 33.122231 34.539285 12.946161 
A 19.091627 18.806661 5.374049 
A 23.363418 39.789645 34.860101 
A 32.148673 17.669370 37.818826 
A 35.144879 28.714388 21.543335 
A 11.397102 4.631988 36.570662 
A 18.188087 22.452907 29.212846 
A 35.916635 30.099306 26.562865 
A 27.955156 15.624813 25.150073 
A 20.394909 8.735686 3.317519 
A 33.297937 37.418645 1.102468 
A 16.241490 23.378550 39.925889 
A 8.266369 39.288665 34.941782 
A 17.636507 5.905426 16.548122 
A 6.477315 13.996053 4.587845 
A 15.616753 30.003082 20.566904 
A 20.205657 39.233090 5.680359 
A 31.092371 12.503020 7.198455 
A 0.904541 14.701234 30.196508 
A 21.264812 36.065878 25.079974 
A 37.828620 36.348678 17.415156 
40
timestep 5  
A 33.813473 27.705550 3.423330 
A 3.258862 16.481717 25.070777 
A 14.492919 4.917004 7.504374 
A 37.424125 7.838437 24.072134 
A 18.239673 20.204544 36.421423 
A 33.249542 26.985971 14.909967 
A 10.399151 36.445635 1.162633 
A 13.700209 21.611315 15.706844 
A 11.969906 29.829702 8.756118 
A 30.358243 1.076041 33.385709 
A 28.383556 28.890500 33.124326 
A 9.602820 25.688084 24.843384 
A 31.778363 30.460427 0.911571 
A 4.459823 5.414018 25.045803 
A 37.188445 19.191785 0.142256 
A 6.104956 14.323016 33.187835 
A 37.061480 34.049482 11.254424 
A 25.106033 38.816450 14.204394 
A 39.008984 34.368638 35.260753 
A 35.697466 34.359412 12.068783 
A 15.590404 18.913373 7.250692 
A 24.429440 38.582982 36.522070 
A 32.542229 19.143518 35.564252 
A 33.351790 28.446969 18.348633 
A 12.400438 6.412800 36.012277 
A 20.432221 22.669658 28.794504 
A 31.963931 32.850541 24.069452 
A 30.349219 15.304248 25.197717 
A 21.768076 7.025273 6.023241 
A 32.389045 33.458143 2.124256 
A 14.851496 24.282150 2.059203 
A 9.631156 39.694536 33.210701 
A 18.854777 7.192922 16.302270 
A 10.894778 16.252254 7.139531 
A 19.333923 31.511869 19.700467 
A 19.087649 1.421856 3.303558 
A 28.452905 11.616000 8.841250 
A 38.666785 15.149086 26.568637 
A 21.357647 36.025488 23.413329 
A 34.273560 32.588498 17.100333 
40
timestep 6  
A 35.683345 28.757440 1.905173 
A 4.281729 14.313589 28.634600 
A 16.674641 5.994526 8.459687 
A 35.634929 8.223518 24.580917 
A 18.534164 22.501934 35.733200 
A 32.687594 29.497655 19.677794 
A 9.001022 34.620449 39.828116 
A 14.389631 18.012452 13.353135 
A 11.963617 29.926072 8.613072 
A 29.849374 1.253045 32.791701 
A 29.641755 27.914141 34.263341 
A 10.726844 26.455334 25.868499 
A 29.448880 30.635541 1.878064 
A 4.634574 3.980172 25.017849 
A 36.104993 21.784736 0.496690 
A 5.615417 14.698445 34.071147 
A 37.755735 35.534103 10.458249 
A 24.450855 34.193204 15.653905 
A 38.576438 32.961265 35.120804 
A 38.266524 34.180943 11.195093 
A 12.089181 19.020085 9.127334 
A 25.495462 37.376318 38.184038 
A 32.935785 20.617666 33.309678 
A 31.558702 28.179549 15.153931 
A 13.403774 8.193611 35.453893 
A 22.676355 22.886410 28.376162 
A 28.011228 35.601775 21.576040 
A 32.743282 14.983683 25.245361 
A 23.141242 5.314861 8.728962 
A 31.480152 29.497640 3.146044 
A 13.461502 25.185751 4.192516 
A 10.995944 0.100406 31.479621 
A 20.073046 8.480418 16.056419 
A 15.312241 18.508454 9.691216 
A 23.051093 33.020656 18.834030 
A 17.969641 3.610622 0.926757 
A 25.813440 10.728980 10.484046 
A 36.429029 15.596939 22.940766 
A 21.450483 35.985098 21.746684 
A 30.718499 28.828317 16.785511 
40
timestep 7  
A 37.553217 29.809330 0.387016 
A 5.304596 12.145462 32.198422 
A 18.856363 7.072047 9.415000 
A 33.845733 8.608599 25.089699 
A 18.828654 24.799324 35.044977 
A 32.125646 32.009339 24.445622 
A 7.602894 32.795263 38.493599 
A 15.079054 14.413590 10.999426 
A 11.957327 30.022442 8.470026 
A 29.340504 1.430049 32.197693 
A 30.899953 26.937782 35.402356 
A 11.850867 27.222585 26.893615 
A 27.119398 30.810655 2.844557 
A 4.809325 2.546327 24.989896 
A 35.021542 24.377686 0.851125 
A 5.125878 15.073874 34.954460 
A 38.447724 37.024724 9.658807 
A 23.795676 29.569957 17.103417 
A 38.143892 31.553891 34.980855 
A 0.837848 33.996473 10.324670 
A 8.587958 19.126797 11.003976 
A 26.561483 36.169655 39.846007 
A 33.329340 22.091814 31.055105 
A 29.766556 27.911402 11.957399 
A 14.407111 9.974422 34.895508 
A 24.920490 23.103161 27.957820 
A 24.058524 38.353010 19.082627 
A 35.137345 14.663118 25.293004 
A 24.514409 3.604448 11.434684 
A 30.571260 25.537138 4.167833 
A 12.071508 26.089351 6.325829 
A 12.360731 0.506277 29.748540 
A 21.291316 9.767914 15.810568 
A 19.729704 20.764655 12.242902 
A 26.768262 34.529443 17.967593 
A 16.851633 5.799388 38.549956 
A 23.173975 9.841960 12.126842 
A 34.191273 16.044792 19.312896 
A 21.543318 35.944707 20.080040 
A 27.162496 25.068865 16.472518 
40
timestep 8  
A 39.423090 30.861219 38.868859 
A 6.327463 9.977335 35.762244 
A 21.038084 8.149569 10.370313 
A 32.056537 8.993681 25.598482 
A 19.123144 27.096714 34.356754 
A 31.563698 34.521023 29.213449 
A 6.204765 30.970078 37.159082 
A 15.768476 10.814727 8.645717 
A 11.951037 30.118812 8.326980 
A 28.831634 1.607053 31.603685 
A 32.158151 25.961423 36.541371 
A 12.974891 27.989836 27.918730 
A 24.789916 30.985769 3.811050 
A 4.984075 1.112482 24.961942 
A 33.938090 26.970637 1.205559 
A 4.636339 15.449304 35.837772 
A 39.139714 38.515346 8.859365 
A 23.140498 24.946711 18.552928 
A 37.711346 30.146517 34.840905 
A 3.409172 33.812004 9.454248 
A 5.086735 19.233510 12.880618 
A 27.627505 34.962991 1.507976 
A 33.722896 23.565962 28.800531 
A 27.974410 27.643254 8.760867 
A 15.410447 11.755233 34.337123 
A 27.164624 23.319912 27.539477 
A 20.105820 1.104245 16.589215 
A 37.531408 14.342553 25.340648 
A 25.887576 1.894036 14.140406 
A 29.662367 21.576635 5.189621 
A 10.681514 26.992951 8.459143 
A 13.725519 0.912147 28.017460 
A 22.509586 11.055409 15.564717 
A 24.147167 23.020856 14.794587 
A 30.485432 36.038230 17.101156 
A 15.733625 7.988155 36.173154 
A 20.534510 8.954940 13.769637 
A 31.953517 16.492644 15.685025 
A 21.636154 35.904317 18.413395 
A 23.606493 21.309412 16.159526 
40
timestep 9  
A 1.292962 31.913109 37.350702 
A 7.350330 7.809208 39.326067 
A 23.219806 9.227091 11.325626 
A 30.267341 9.378762 26.107264 
A 19.417634 29.394104 33.668530 
A 31.001750 37.032707 33.981276 
A 4.806636 29.144892 35.824564 
A 16.457899 7.215865 6.292008 
A 11.944747 30.215182 8.183934 
A 28.322765 1.784056 31.009677 
A 33.416350 24.985063 37.680386 
A 14.098915 28.757086 28.943845 
A 22.460434 31.160883 4.777543 
A 5.158826 39.678637 24.933989 
A 32.854638 29.563587 1.559993 
A 4.146800 15.824733 36.721085 
A 39.831703 0.005968 8.059923 
A 22.485320 20.323464 20.002440 
A 37.278800 28.739143 34.700956 
A 5.980496 33.627534 8.583825 
A 1.585512 19.340222 14.757260 
A 28.693527 33.756327 3.169945 
A 34.116452 25.040109 26.545957 
A 26.182264 27.375107 5.564335 
A 16.413783 13.536044 33.778739 
A 29.408758 23.536664 27.121135 
A 16.153116 3.855480 14.095802 
A 39.925471 14.021988 25.388292 
A 27.260743 0.183623 16.846127 
A 28.753474 17.616133 6.211409 
A 9.291520 27.896551 10.592456 
A 15.090306 1.318018 26.286380 
A 23.727856 12.342905 15.318865 
A 28.564821 25.277662 17.345790 
A 34.202602 37.547017 16.234719 
A 14.615616 10.176921 33.796353 
A 17.895044 8.067920 15.412433 
A 29.715761 16.940497 12.057155 
A 21.728989 35.863927 16.746750 
A 20.050298 17.549354 15.847016 
40
timestep 10  
A 3.162834 32.964998 35.832545 
A 8.373197 5.641080 2.889889 
A 25.401528 10.304613 12.280939 
A 28.478145 9.763844 26.616047 
A 19.712125 31.691494 32.980307 
A 30.439801 39.544391 38.749104 
A 3.408508 27.319706 34.490047 
A 17.147321 3.617002 3.938299 
A 11.938457 30.311552 8.040888 
A 27.813895 1.961060 30.415669 
A 34.674548 24.008704 38.819401 
A 15.222939 29.524337 29.968961 
A 20.130951 31.335998 5.744036 
A 5.333577 38.244792 24.906035 
A 31.771187 32.156538 1.914427 
A 3.657261 16.200162 37.604398 
A 0.523693 1.496589 7.260480 
A 21.830142 15.700218 21.451951 
A 36.846254 27.331769 34.561007 
A 8.551819 33.443064 7.713403 
A 38.084288 19.446934 16.633902 
A 29.759549 32.549664 4.831913 
A 34.510007 26.514257 24.291383 
A 24.390117 27.106960 2.367803 
A 17.417120 15.316856 33.220354 
A 31.652892 23.753415 26.702793 
A 12.200413 6.606714 11.602390 
A 2.319534 13.701423 25.435935 
A 28.633910 38.473211 19.551849 
A 27.844582 13.655630 7.233198 
A 7.901526 28.800151 12.725769 
A 16.455093 1.723888 24.555299 
A 24.946126 13.630401 15.073014 
A 32.982476 27.534468 19.896993 
A 37.919771 39.055804 15.368282 
A 13.497608 12.365687 31.419552 
A 15.255579 7.180900 17.055228 
A 27.478004 17.388350 8.429284 
A 21.821825 35.823536 15.080106 
A 16.494104 13.789296 15.534507 
40
timestep 11  
A 5.032706 34.016888 34.314388 
A 9.396064 3.472953 6.453711 
A 27.583250 11.382134 13.236252 
A 26.688950 10.148925 27.124830 
A 20.006615 33.988884 32.292084 
A 29.877853 2.056075 3.516931 
A 2.010379 25.494520 33.155530 
A 17.836744 0.018140 1.584590 
A 11.932168 30.407922 7.897842 
A 27.305025 2.138064 29.821660 
A 35.932747 23.032345 39.958416 
A 16.346962 30.291587 30.994076 
A 17.801469 31.511112 6.710529 
A 5.508328 36.810946 24.878082 
A 30.687735 34.749489 2.268861 
A 3.167722 16.575591 38.487710 
A 1.215682 2.987211 6.461038 
A 21.174964 11.076971 22.901463 
A 36.413708 25.924395 34.421058 
A 11.123143 33.258594 6.842980 
A 34.583065 19.553646 18.510544 
A 30.825571 31.343000 6.493882 
A 34.903563 27.988405 22.036810 
A 22.597971 26.838812 39.171271 
A 18.420456 17.097667 32.661969 
A 33.897026 23.970167 26.284451 
A 8.247709 9.357949 9.108977 
A 4.713597 13.380858 25.483579 
A 30.007077 36.762798 22.257571 
A 26.935689 9.695128 8.254986 
A 6.511532 29.703751 14.859082 
A 17.819881 2.129759 22.824219 
A 26.164395 14.917897 14.827163 
A 37.400130 29.791274 22.448196 
A 1.636941 0.564592 14.501845 
A 12.379600 14.554453 29.042751 
A 12.616114 6.293879 18.698024 
A 25.240248 17.836203 4.801414 
A 21.914660 35.783146 13.413461 
A 12.937909 10.029238 15.221997 
40
timestep 12  
A 6.902578 35.068778 32.796231 
A 10.418931 1.304826 10.017534 
A 29.764971 12.459656 14.191565 
A 24.899754 10.534006 27.633612 
A 20.301105 36.286274 31.603861 
A 29.315905 4.567760 8.284758 
A 0.612250 23.669334 31.821013 
A 18.526166 36.419277 39.230882 
A 11.925878 30.504292 7.754796 
A 26.796156 2.315068 29.227652 
A 37.190945 22.055986 1.097431 
A 17.470986 31.058838 32.019191 
A 15.471987 31.686226 7.677022 
A 5.683079 35.377101 24.850128 
A 29.604283 37.342439 2.623296 
A 2.678183 16.951021 39.371023 
A 1.907672 4.477833 5.661596 
A 20.519786 6.453725 24.350974 
A 35.981162 24.517022 34.281108 
A 13.694467 33.074124 5.972558 
A 31.081842 19.660358 20.387186 
A 31.891592 30.136336 8.155851 
A 35.297119 29.462553 19.782236 
A 20.805825 26.570665 35.974739 
A 19.423792 18.878478 32.103585 
A 36.141160 24.186918 25.866109 
A 4.295005 12.109184 6.615565 
A 7.107660 13.060293 25.531223 
A 31.380244 35.052386 24.963293 
A 26.026797 5.734625 9.276774 
A 5.121538 30.607351 16.992396 
A 19.184668 2.535630 21.093139 
A 27.382665 16.205393 14.581312 
A 1.817784 32.048080 24.999399 
A 5.354111 2.073379 13.635408 
A 11.261592 16.743219 26.665949 
A 9.976648 5.406859 20.340820 
A 23.002492 18.284055 1.173543 
A 22.007496 35.742756 11.746816 
A 9.381715 6.269181 14.909487 
40
timestep 13  
A 8.772450 36.120667 31.278074 
A 11.441799 39.136699 13.581356 
A 31.946693 13.537178 15.146878 
A 23.110558 10.919088 28.142395 
A 20.595596 38.583664 30.915638 
A 28.753957 7.079444 13.052586 
A 39.214122 21.844148 30.486496 
A 19.215589 32.820415 36.877173 
A 11.919588 30.600661 7.611750 
A 26.287286 2.492072 28.633644 
A 38.449143 21.079626 2.236446 
A 18.595010 31.826089 33.044306 
A 13.142504 31.861340 8.643515 
A 5.857830 33.943256 24.822175 
A 28.520831 39.935390 2.977730 
A 2.188645 17.326450 0.254335 
A 2.599661 5.968454 4.862154 
A 19.864608 1.830478 25.800486 
A 35.548615 23.109648 34.141159 
A 16.265791 32.889654 5.102135 
A 27.580619 19.767070 22.263828 
A 32.957614 28.929673 9.817819 
A 35.690675 30.936701 17.527662 
A 19.013679 26.302517 32.778206 
A 20.427128 20.659289 31.545200 
A 38.385294 24.403669 25.447767 
A 0.342301 14.860418 4.122153 
A 9.501723 12.739728 25.578867 
A 32.753411 33.341973 27.669014 
A 25.117904 1.774123 10.298563 
A 3.731544 31.510951 19.125709 
A 20.549456 2.941500 19.362058 
A 28.600935 17.492889 14.335460 
A 6.235439 34.304886 27.550601 
A 9.071280 3.582166 12.768971 
A 10.143584 18.931986 24.289148 
A 7.337183 4.519839 21.983615 
A 20.764736 18.731908 37.545673 
A 22.100331 35.702366 10.080172 
A 5.825520 2.509123 14.596978 
40
timestep 14  
A 10.642323 37.172557 29.759918 
A 12.464666 36.968571 17.145178 
A 34.128415 14.614699 16.102191 
A 21.321362 11.304169 28.651177 
A 20.890086 0.881053 30.227415 
A 28.192009 9.591128 17.820413 
A 37.815993 20.018963 29.151979 
A 19.905011 29.221552 34.523464 
A 11.912336 30.696039 7.467892 
A 25.778416 2.669075 28.039636 
A 39.707342 20.103267 3.375461 
A 19.719034 32.593339 34.069422 
A 10.813984 32.037447 9.610820 
A 6.032580 32.509411 24.794221 
A 27.437380 2.528340 3.332164 
A 1.699106 17.701879 1.137648 
A 3.291651 7.459076 4.062711 
A 19.209430 37.207232 27.249997 
A 35.116069 21.702274 34.001210 
A 18.837114 32.705184 4.231713 
A 24.079396 19.873783 24.140470 
A 34.023636 27.723009 11.479788 
A 36.084230 32.410849 15.273088 
A 17.221533 26.034370 29.581674 
A 21.430465 22.440100 30.986815 
A 0.629429 24.620421 25.029425 
A 36.389598 17.611653 1.628740 
A 11.895786 12.419163 25.626510 
A 34.126578 31.631561 30.374736 
A 24.209011 37.813620 11.320351 
A 2.341550 32.414552 21.259022 
A 21.914243 3.347371 17.630978 
A 29.819205 18.780385 14.089609 
A 10.653093 36.561692 30.101804 
A 12.788450 5.090953 11.902534 
A 9.025576 21.120752 21.912347 
A 4.697718 3.632819 23.626411 
A 18.526980 19.179761 33.917802 
A 22.193166 35.661975 8.413527 
A 2.269326 38.749065 14.284468 
40
timestep 15  
A 13.227939 37.629220 10.961960 
A 13.487533 34.800444 20.709001 
A 36.310136 15.692221 17.057504 
A 19.532166 11.689250 29.159960 
A 21.184576 3.178443 29.539192 
A 27.630061 12.102812 22.588240 
A 36.417865 18.193777 27.817461 
A 20.594434 25.622690 32.169755 
A 11.905084 30.791417 7.324034 
A 25.269547 2.846079 27.445628 
A 0.965540 19.126908 4.514476 
A 20.843057 33.360590 35.094537 
A 8.485465 32.213553 10.578125 
A 6.207331 31.075566 24.766268 
A 26.353928 5.121291 3.686598 
A 1.209567 18.077309 2.020960 
A 3.983641 8.949698 3.263269 
A 18.554252 32.583985 28.699509 
A 34.683523 20.294900 33.861261 
A 21.408438 32.520714 3.361290 
A 20.578173 19.980495 26.017112 
A 35.089658 26.516345 13.141757 
A 36.477786 33.884996 13.018515 
A 15.429387 25.766223 26.385142 
A 22.433801 24.220912 30.428431 
A 2.873563 24.837172 24.611083 
A 32.436894 20.362888 39.135328 
A 14.289849 12.098598 25.674154 
A 35.499745 29.921148 33.080458 
A 23.300119 33.853118 12.342140 
A 0.951556 33.318152 23.392336 
A 23.279030 3.753241 15.899897 
A 31.037474 20.067880 13.843758 
A 14.355003 39.413725 9.932808 
A 16.505620 6.599740 11.036097 
A 7.907568 23.309518 19.535546 
A 2.058253 2.745799 25.269207 
A 16.289224 19.627613 30.289932 
A 22.286002 35.621585 6.746882 
A 38.713132 34.989007 13.971959 
40
timestep 16  
A 15.813267 38.085424 32.164266 
A 14.510400 32.632317 24.272823 
A 38.491858 16.769743 18.012817 
A 17.742970 12.074332 29.668742 
A 21.479067 5.475833 28.850969 
A 27.068113 14.614496 27.356068 
A 35.019736 16.368591 26.482944 
A 21.283856 22.023827 29.816046 
A 11.897832 30.886795 7.180176 
A 24.760677 3.023083 26.851620 
A 2.223739 18.150549 5.653491 
A 21.967081 34.127840 36.119652 
A 6.156945 32.389659 11.545430 
A 6.382082 29.641720 24.738314 
A 25.270476 7.714241 4.041033 
A 0.720028 18.452738 2.904273 
A 4.675630 10.440319 2.463827 
A 17.899074 27.960739 30.149021 
A 34.250977 18.887526 33.721311 
A 23.979762 32.336244 2.490868 
A 17.076949 20.087207 27.893754 
A 36.155680 25.309682 14.803725 
A 36.871342 35.359144 10.763941 
A 13.637241 25.498075 23.188610 
A 23.437137 26.001723 29.870046 
A 5.117697 25.053923 24.192741 
A 28.484190 23.114122 36.641915 
A 16.683912 11.778033 25.721798 
A 36.872912 28.210736 35.786179 
A 22.391226 29.892615 13.363928 
A 39.561562 34.221752 25.525649 
A 24.643818 4.159112 14.168817 
A 32.255744 21.355376 13.597907 
A 18.057202 2.266216 29.763548 
A 20.222789 8.108527 10.169660 
A 6.789560 25.498284 17.158745 
A 39.418787 1.858779 26.912002 
A 14.051468 20.075466 26.662061 
A 22.378837 35.581195 5.080237 
A 35.156937 31.228949 13.659449 
40
timestep 17  
A 18.398594 38.541629 13.366572 
A 15.533267 30.464190 27.836645 
A 0.673580 17.847265 18.968130 
A 15.953774 12.459413 30.177525 
A 21.773557 7.773223 28.162746 
A 26.506165 17.126180 32.123895 
A 33.621607 14.543405 25.148427 
A 21.973279 18.424965 27.462337 
A 11.890579 30.982173 7.036318 
A 24.251807 3.200087 26.257611 
A 3.481937 17.174189 6.792506 
A 23.091105 34.895091 37.144768 
A 3.828425 32.565765 12.512735 
A 6.556833 28.207875 24.710361 
A 24.187025 10.307192 4.395467 
A 0.230489 18.828167 3.787586 
A 5.367620 11.930941 1.664385 
A 17.243896 23.337492 31.598532 
A 33.818431 17.480152 33.581362 
A 26.551086 32.151774 1.620445 
A 13.575726 20.193919 29.770396 
A 37.221701 24.103018 16.465694 
A 37.264897 36.833292 8.509367 
A 11.845095 25.229928 19.992078 
A 24.440473 27.782534 29.311662 
A 7.361831 25.270675 23.774398 
A 24.531487 25.865357 34.148503 
A 19.077975 11.457469 25.769441 
A 38.246079 26.500323 38.491901 
A 21.482334 25.932113 14.385716 
A 38.171568 35.125352 27.658962 
A 26.008605 4.564982 12.437737 
A 33.474014 22.642872 13.352055 
A 21.759400 5.118707 9.594287 
A 23.939959 9.617314 9.303222 
A 5.671551 27.687051 14.781943 
A 36.779322 0.971759 28.554798 
A 11.813711 20.523319 23.034191 
A 22.471673 35.540804 3.413593 
A 31.600743 27.468891 13.346939 
40
timestep 18  
A 20.983922 38.997834 34.568878 
A 16.556134 28.296062 31.400468 
A 2.855302 18.924786 19.923443 
A 14.164579 12.844494 30.686308 
A 22.068047 10.070613 27.474523 
A 25.944217 19.637864 36.891722 
A 32.223479 12.718219 23.813910 
A 22.662702 14.826102 25.108628 
A 11.883327 31.077550 6.892460 
A 23.742938 3.377091 25.663603 
A 4.740135 16.197830 7.931522 
A 24.215128 35.662342 38.169883 
A 1.499905 32.741872 13.480040 
A 6.731584 26.774030 24.682407 
A 23.103573 12.900142 4.749901 
A 39.740950 19.203596 4.670898 
A 6.059609 13.421563 0.864943 
A 16.588718 18.714246 33.048044 
A 33.385885 16.072779 33.441413 
A 29.122409 31.967304 0.750023 
A 10.074503 20.300631 31.647038 
A 38.287723 22.896354 18.127663 
A 37.658453 38.307440 6.254793 
A 10.052949 24.961780 16.795546 
A 25.443810 29.563345 28.753277 
A 9.605965 25.487426 23.356056 
A 20.578783 28.616592 31.655090 
A 21.472038 11.136904 25.817085 
A 39.619245 24.789911 1.197623 
A 20.573441 21.971610 15.407505 
A 36.781574 36.028952 29.792275 
A 27.373393 4.970853 10.706656 
A 34.692284 23.930368 13.106204 
A 25.461599 7.971197 29.425027 
A 27.657129 11.126101 8.436785 
A 4.553543 29.875817 12.405142 
A 34.139857 0.084739 30.197594 
A 9.575955 20.971171 19.406320 
A 22.564508 35.500414 1.746948 
A 28.044548 23.708833 13.034430 
40
timestep 19  
A 23.569249 39.454039 15.771184 
A 17.579001 26.127935 34.964290 
A 5.037023 20.002308 20.878755 
A 12.375383 13.229576 31.195090 
A 22.362969 12.367231 26.787499 
A 25.382269 22.149548 1.659550 
A 30.825350 10.893033 22.479393 
A 23.352124 11.227240 22.754919 
A 11.876075 31.172928 6.748602 
A 23.234068 3.554095 25.069595 
A 5.998334 15.221471 9.070537 
A 25.339152 36.429592 39.194998 
A 39.171385 32.917978 14.447345 
A 6.906335 25.340185 24.654454 
A 22.020121 15.493093 5.104335 
A 39.251411 19.579026 5.554211 
A 6.751599 14.912184 0.065500 
A 15.933540 14.090999 34.497555 
A 32.953339 14.665405 33.301463 
A 31.693733 31.782834 39.879600 
A 6.573280 20.407344 33.523681 
A 39.353745 21.689691 19.789631 
A 38.052009 39.781588 4.000220 
A 8.260803 24.693633 13.599014 
A 26.447146 31.344156 28.194892 
A 11.850099 25.704177 22.937714 
A 16.626079 31.367826 29.161678 
A 23.865670 10.817110 25.863530 
A 0.992412 23.079498 3.903344 
A 19.664548 18.011108 16.429293 
A 35.391580 36.932552 31.925589 
A 28.738180 5.376724 8.975576 
A 35.910554 25.217864 12.860353 
A 29.163798 10.823688 9.255767 
A 31.374298 12.634888 7.570348 
A 3.435535 32.064583 10.028341 
A 31.500392 39.197719 31.840389 
A 7.338199 21.419024 15.778450 
A 22.657344 35.460024 0.080303 
A 24.488354 19.948775 12.721920 
40
timestep 20  
A 26.154577 39.910244 36.973490 
A 18.601868 23.959808 38.528112 
A 7.218745 21.079830 21.834068 
A 10.586187 13.614657 31.703873 
A 22.657505 14.664247 26.100712 
A 24.820321 24.661232 6.427377 
A 29.427221 9.067847 21.144876 
A 24.041547 7.628377 20.401211 
A 11.868823 31.268306 6.604744 
A 22.725198 3.731098 24.475587 
A 7.256532 14.245112 10.209552 
A 26.463176 37.196843 0.220114 
A 36.842865 33.094084 15.414650 
A 7.081086 23.906340 24.626500 
A 20.936669 18.086044 5.458770 
A 38.761872 19.954455 6.437523 
A 7.443588 16.402806 39.266058 
A 15.278362 9.467753 35.947067 
A 32.520793 13.258031 33.161514 
A 34.265057 31.598364 39.009177 
A 3.072057 20.514056 35.400323 
A 0.419767 20.483027 21.451600 
A 38.445564 1.255736 1.745646 
A 6.468657 24.425486 10.402482 
A 27.450482 33.124967 27.636508 
A 14.094233 25.920929 22.519372 
A 12.673375 34.119061 26.668265 
A 26.259687 10.496919 25.909737 
A 2.365579 21.369086 6.609066 
A 18.755656 14.050605 17.451081 
A 34.001587 37.836152 34.058902 
A 30.102967 5.782594 7.244496 
A 37.128823 26.505360 12.614502 
A 32.865997 13.676179 29.086507 
A 35.091468 14.143675 6.703911 
A 2.317527 34.253349 7.651540 
A 28.860926 38.310699 33.483185 
A 5.100443 21.866877 12.150579 
A 22.750179 35.419634 38.413659 
A 20.932160 16.188717 12.409411 
40
timestep 21  
A 28.739905 0.366448 18.175797 
A 19.624735 21.791681 2.091935 
A 9.400467 22.157351 22.789381 
A 8.796991 13.999738 32.212655 
A 22.952042 16.961263 25.413925 
A 24.258373 27.172916 11.195205 
A 28.029093 7.242662 19.810358 
A 24.730969 4.029515 18.047502 
A 11.861571 31.363684 6.460886 
A 22.216329 3.908102 23.881579 
A 8.514731 13.268752 11.348567 
A 27.587200 37.964093 1.245229 
A 34.514345 33.270191 16.381955 
A 7.255836 22.472494 24.598547 
A 19.853218 20.678994 5.813204 
A 38.272333 20.329884 7.320836 
A 8.135578 17.893427 38.466616 
A 14.623184 4.844506 37.396578 
A 32.088247 11.850657 33.021565 
A 36.836380 31.413894 38.138755 
A 39.570833 20.620768 37.276965 
A 1.485789 19.276364 23.113569 
A 38.839120 2.729883 39.491072 
A 4.676511 24.157338 7.205950 
A 28.453819 34.905779 27.078123 
A 16.338368 26.137680 22.101030 
A 8.720672 36.870296 24.174853 
A 28.653704 10.176728 25.955945 
A 3.738746 19.658673 9.314788 
A 17.846763 10.090103 18.472870 
A 32.611593 38.739753 36.192215 
A 31.467755 6.188465 5.513415 
A 38.347093 27.792856 12.368650 
A 36.568196 16.528670 8.917246 
A 38.808638 15.652462 5.837474 
A 1.199519 36.442116 5.274738 
A 26.221461 37.423679 35.125981 
A 2.862687 22.314729 8.522709 
A 22.843015 35.379243 36.747014 
A 17.375965 12.428660 12.096901 
40
timestep 22  
A 31.325232 0.822653 39.378103 
A 20.647602 19.623554 5.655757 
A 11.582189 23.234873 23.744694 
A 7.007795 14.384820 32.721438 
A 23.246578 19.258279 24.727138 
A 23.696425 29.684600 15.963032 
A 26.630964 5.417476 18.475841 
A 25.420392 0.430652 15.693793 
A 11.854319 31.459062 6.317028 
A 21.707459 4.085106 23.287571 
A 9.772929 12.292393 12.487582 
A 28.711223 38.731344 2.270344 
A 32.185825 33.446297 17.349260 
A 7.430587 21.038649 24.570593 
A 18.769766 23.271945 6.167638 
A 37.782795 20.705314 8.204148 
A 8.827567 19.384049 37.667174 
A 13.968006 0.221260 38.846090 
A 31.655700 10.443283 32.881616 
A 39.407704 31.229424 37.268332 
A 36.069610 20.727480 39.153607 
A 2.551810 18.069700 24.775537 
A 39.232676 4.204031 37.236499 
A 2.884365 23.889191 4.009418 
A 29.457155 36.686590 26.519738 
A 18.582502 26.354432 21.682688 
A 4.767968 39.621530 21.681440 
A 31.047721 9.856537 26.002152 
A 5.111913 17.948261 12.020509 
A 16.937871 6.129600 19.494658 
A 31.221599 39.643353 38.325528 
A 32.832542 6.594335 3.782335 
A 39.565363 29.080352 12.122799 
A 0.270395 19.381161 28.747986 
A 2.525807 17.161249 4.971037 
A 0.081511 38.630882 2.897937 